 VARIABLES = "x","y","z","r"
 ZONE T="Zone1" I=          16  J=          16  K=          32 , F=POINT
 
 -0.43750000E+00 -0.43750000E+00 -0.93750000E+00  0.23340520E+01
 -0.37500000E+00 -0.43750000E+00 -0.93750000E+00  0.22865996E+01
 -0.31250000E+00 -0.43750000E+00 -0.93750000E+00  0.22456645E+01
 -0.25000000E+00 -0.43750000E+00 -0.93750000E+00  0.22116086E+01
 -0.18750000E+00 -0.43750000E+00 -0.93750000E+00  0.21847537E+01
 -0.12500000E+00 -0.43750000E+00 -0.93750000E+00  0.21653678E+01
 -0.62500000E-01 -0.43750000E+00 -0.93750000E+00  0.21536525E+01
  0.00000000E+00 -0.43750000E+00 -0.93750000E+00  0.21497332E+01
  0.62500000E-01 -0.43750000E+00 -0.93750000E+00  0.21536525E+01
  0.12500000E+00 -0.43750000E+00 -0.93750000E+00  0.21653678E+01
  0.18750000E+00 -0.43750000E+00 -0.93750000E+00  0.21847537E+01
  0.25000000E+00 -0.43750000E+00 -0.93750000E+00  0.22116086E+01
  0.31250000E+00 -0.43750000E+00 -0.93750000E+00  0.22456645E+01
  0.37500000E+00 -0.43750000E+00 -0.93750000E+00  0.22865996E+01
  0.43750000E+00 -0.43750000E+00 -0.93750000E+00  0.23340520E+01
  0.50000000E+00 -0.43750000E+00 -0.93750000E+00  0.23876333E+01
 -0.43750000E+00 -0.37500000E+00 -0.93750000E+00  0.22865996E+01
 -0.37500000E+00 -0.37500000E+00 -0.93750000E+00  0.22381413E+01
 -0.31250000E+00 -0.37500000E+00 -0.93750000E+00  0.21963032E+01
 -0.25000000E+00 -0.37500000E+00 -0.93750000E+00  0.21614697E+01
 -0.18750000E+00 -0.37500000E+00 -0.93750000E+00  0.21339840E+01
 -0.12500000E+00 -0.37500000E+00 -0.93750000E+00  0.21141325E+01
 -0.62500000E-01 -0.37500000E+00 -0.93750000E+00  0.21021317E+01
  0.00000000E+00 -0.37500000E+00 -0.93750000E+00  0.20981162E+01
  0.62500000E-01 -0.37500000E+00 -0.93750000E+00  0.21021317E+01
  0.12500000E+00 -0.37500000E+00 -0.93750000E+00  0.21141325E+01
  0.18750000E+00 -0.37500000E+00 -0.93750000E+00  0.21339840E+01
  0.25000000E+00 -0.37500000E+00 -0.93750000E+00  0.21614697E+01
  0.31250000E+00 -0.37500000E+00 -0.93750000E+00  0.21963032E+01
  0.37500000E+00 -0.37500000E+00 -0.93750000E+00  0.22381413E+01
  0.43750000E+00 -0.37500000E+00 -0.93750000E+00  0.22865996E+01
  0.50000000E+00 -0.37500000E+00 -0.93750000E+00  0.23412671E+01
 -0.43750000E+00 -0.31250000E+00 -0.93750000E+00  0.22456645E+01
 -0.37500000E+00 -0.31250000E+00 -0.93750000E+00  0.21963032E+01
 -0.31250000E+00 -0.31250000E+00 -0.93750000E+00  0.21536525E+01
 -0.25000000E+00 -0.31250000E+00 -0.93750000E+00  0.21181177E+01
 -0.18750000E+00 -0.31250000E+00 -0.93750000E+00  0.20900619E+01
 -0.12500000E+00 -0.31250000E+00 -0.93750000E+00  0.20697893E+01
 -0.62500000E-01 -0.31250000E+00 -0.93750000E+00  0.20575298E+01
  0.00000000E+00 -0.31250000E+00 -0.93750000E+00  0.20534271E+01
  0.62500000E-01 -0.31250000E+00 -0.93750000E+00  0.20575298E+01
  0.12500000E+00 -0.31250000E+00 -0.93750000E+00  0.20697893E+01
  0.18750000E+00 -0.31250000E+00 -0.93750000E+00  0.20900619E+01
  0.25000000E+00 -0.31250000E+00 -0.93750000E+00  0.21181177E+01
  0.31250000E+00 -0.31250000E+00 -0.93750000E+00  0.21536525E+01
  0.37500000E+00 -0.31250000E+00 -0.93750000E+00  0.21963032E+01
  0.43750000E+00 -0.31250000E+00 -0.93750000E+00  0.22456645E+01
  0.50000000E+00 -0.31250000E+00 -0.93750000E+00  0.23013046E+01
 -0.43750000E+00 -0.25000000E+00 -0.93750000E+00  0.22116086E+01
 -0.37500000E+00 -0.25000000E+00 -0.93750000E+00  0.21614697E+01
 -0.31250000E+00 -0.25000000E+00 -0.93750000E+00  0.21181177E+01
 -0.25000000E+00 -0.25000000E+00 -0.93750000E+00  0.20819766E+01
 -0.18750000E+00 -0.25000000E+00 -0.93750000E+00  0.20534271E+01
 -0.12500000E+00 -0.25000000E+00 -0.93750000E+00  0.20327891E+01
 -0.62500000E-01 -0.25000000E+00 -0.93750000E+00  0.20203051E+01
  0.00000000E+00 -0.25000000E+00 -0.93750000E+00  0.20161266E+01
  0.62500000E-01 -0.25000000E+00 -0.93750000E+00  0.20203051E+01
  0.12500000E+00 -0.25000000E+00 -0.93750000E+00  0.20327891E+01
  0.18750000E+00 -0.25000000E+00 -0.93750000E+00  0.20534271E+01
  0.25000000E+00 -0.25000000E+00 -0.93750000E+00  0.20819766E+01
  0.31250000E+00 -0.25000000E+00 -0.93750000E+00  0.21181177E+01
  0.37500000E+00 -0.25000000E+00 -0.93750000E+00  0.21614697E+01
  0.43750000E+00 -0.25000000E+00 -0.93750000E+00  0.22116086E+01
  0.50000000E+00 -0.25000000E+00 -0.93750000E+00  0.22680843E+01
 -0.43750000E+00 -0.18750000E+00 -0.93750000E+00  0.21847537E+01
 -0.37500000E+00 -0.18750000E+00 -0.93750000E+00  0.21339840E+01
 -0.31250000E+00 -0.18750000E+00 -0.93750000E+00  0.20900619E+01
 -0.25000000E+00 -0.18750000E+00 -0.93750000E+00  0.20534271E+01
 -0.18750000E+00 -0.18750000E+00 -0.93750000E+00  0.20244750E+01
 -0.12500000E+00 -0.18750000E+00 -0.93750000E+00  0.20035388E+01
 -0.62500000E-01 -0.18750000E+00 -0.93750000E+00  0.19908714E+01
  0.00000000E+00 -0.18750000E+00 -0.93750000E+00  0.19866310E+01
  0.62500000E-01 -0.18750000E+00 -0.93750000E+00  0.19908714E+01
  0.12500000E+00 -0.18750000E+00 -0.93750000E+00  0.20035388E+01
  0.18750000E+00 -0.18750000E+00 -0.93750000E+00  0.20244750E+01
  0.25000000E+00 -0.18750000E+00 -0.93750000E+00  0.20534271E+01
  0.31250000E+00 -0.18750000E+00 -0.93750000E+00  0.20900619E+01
  0.37500000E+00 -0.18750000E+00 -0.93750000E+00  0.21339840E+01
  0.43750000E+00 -0.18750000E+00 -0.93750000E+00  0.21847537E+01
  0.50000000E+00 -0.18750000E+00 -0.93750000E+00  0.22419060E+01
 -0.43750000E+00 -0.12500000E+00 -0.93750000E+00  0.21653678E+01
 -0.37500000E+00 -0.12500000E+00 -0.93750000E+00  0.21141325E+01
 -0.31250000E+00 -0.12500000E+00 -0.93750000E+00  0.20697893E+01
 -0.25000000E+00 -0.12500000E+00 -0.93750000E+00  0.20327891E+01
 -0.18750000E+00 -0.12500000E+00 -0.93750000E+00  0.20035388E+01
 -0.12500000E+00 -0.12500000E+00 -0.93750000E+00  0.19823815E+01
 -0.62500000E-01 -0.12500000E+00 -0.93750000E+00  0.19695780E+01
  0.00000000E+00 -0.12500000E+00 -0.93750000E+00  0.19652917E+01
  0.62500000E-01 -0.12500000E+00 -0.93750000E+00  0.19695780E+01
  0.12500000E+00 -0.12500000E+00 -0.93750000E+00  0.19823815E+01
  0.18750000E+00 -0.12500000E+00 -0.93750000E+00  0.20035388E+01
  0.25000000E+00 -0.12500000E+00 -0.93750000E+00  0.20327891E+01
  0.31250000E+00 -0.12500000E+00 -0.93750000E+00  0.20697893E+01
  0.37500000E+00 -0.12500000E+00 -0.93750000E+00  0.21141325E+01
  0.43750000E+00 -0.12500000E+00 -0.93750000E+00  0.21653678E+01
  0.50000000E+00 -0.12500000E+00 -0.93750000E+00  0.22230185E+01
 -0.43750000E+00 -0.62500000E-01 -0.93750000E+00  0.21536525E+01
 -0.37500000E+00 -0.62500000E-01 -0.93750000E+00  0.21021317E+01
 -0.31250000E+00 -0.62500000E-01 -0.93750000E+00  0.20575298E+01
 -0.25000000E+00 -0.62500000E-01 -0.93750000E+00  0.20203051E+01
 -0.18750000E+00 -0.62500000E-01 -0.93750000E+00  0.19908714E+01
 -0.12500000E+00 -0.62500000E-01 -0.93750000E+00  0.19695780E+01
 -0.62500000E-01 -0.62500000E-01 -0.93750000E+00  0.19566908E+01
  0.00000000E+00 -0.62500000E-01 -0.93750000E+00  0.19523762E+01
  0.62500000E-01 -0.62500000E-01 -0.93750000E+00  0.19566908E+01
  0.12500000E+00 -0.62500000E-01 -0.93750000E+00  0.19695780E+01
  0.18750000E+00 -0.62500000E-01 -0.93750000E+00  0.19908714E+01
  0.25000000E+00 -0.62500000E-01 -0.93750000E+00  0.20203051E+01
  0.31250000E+00 -0.62500000E-01 -0.93750000E+00  0.20575298E+01
  0.37500000E+00 -0.62500000E-01 -0.93750000E+00  0.21021317E+01
  0.43750000E+00 -0.62500000E-01 -0.93750000E+00  0.21536525E+01
  0.50000000E+00 -0.62500000E-01 -0.93750000E+00  0.22116086E+01
 -0.43750000E+00  0.00000000E+00 -0.93750000E+00  0.21497332E+01
 -0.37500000E+00  0.00000000E+00 -0.93750000E+00  0.20981162E+01
 -0.31250000E+00  0.00000000E+00 -0.93750000E+00  0.20534271E+01
 -0.25000000E+00  0.00000000E+00 -0.93750000E+00  0.20161266E+01
 -0.18750000E+00  0.00000000E+00 -0.93750000E+00  0.19866310E+01
 -0.12500000E+00  0.00000000E+00 -0.93750000E+00  0.19652917E+01
 -0.62500000E-01  0.00000000E+00 -0.93750000E+00  0.19523762E+01
  0.00000000E+00  0.00000000E+00 -0.93750000E+00  0.19480519E+01
  0.62500000E-01  0.00000000E+00 -0.93750000E+00  0.19523762E+01
  0.12500000E+00  0.00000000E+00 -0.93750000E+00  0.19652917E+01
  0.18750000E+00  0.00000000E+00 -0.93750000E+00  0.19866310E+01
  0.25000000E+00  0.00000000E+00 -0.93750000E+00  0.20161266E+01
  0.31250000E+00  0.00000000E+00 -0.93750000E+00  0.20534271E+01
  0.37500000E+00  0.00000000E+00 -0.93750000E+00  0.20981162E+01
  0.43750000E+00  0.00000000E+00 -0.93750000E+00  0.21497332E+01
  0.50000000E+00  0.00000000E+00 -0.93750000E+00  0.22077922E+01
 -0.43750000E+00  0.62500000E-01 -0.93750000E+00  0.21536525E+01
 -0.37500000E+00  0.62500000E-01 -0.93750000E+00  0.21021317E+01
 -0.31250000E+00  0.62500000E-01 -0.93750000E+00  0.20575298E+01
 -0.25000000E+00  0.62500000E-01 -0.93750000E+00  0.20203051E+01
 -0.18750000E+00  0.62500000E-01 -0.93750000E+00  0.19908714E+01
 -0.12500000E+00  0.62500000E-01 -0.93750000E+00  0.19695780E+01
 -0.62500000E-01  0.62500000E-01 -0.93750000E+00  0.19566908E+01
  0.00000000E+00  0.62500000E-01 -0.93750000E+00  0.19523762E+01
  0.62500000E-01  0.62500000E-01 -0.93750000E+00  0.19566908E+01
  0.12500000E+00  0.62500000E-01 -0.93750000E+00  0.19695780E+01
  0.18750000E+00  0.62500000E-01 -0.93750000E+00  0.19908714E+01
  0.25000000E+00  0.62500000E-01 -0.93750000E+00  0.20203051E+01
  0.31250000E+00  0.62500000E-01 -0.93750000E+00  0.20575298E+01
  0.37500000E+00  0.62500000E-01 -0.93750000E+00  0.21021317E+01
  0.43750000E+00  0.62500000E-01 -0.93750000E+00  0.21536525E+01
  0.50000000E+00  0.62500000E-01 -0.93750000E+00  0.22116086E+01
 -0.43750000E+00  0.12500000E+00 -0.93750000E+00  0.21653678E+01
 -0.37500000E+00  0.12500000E+00 -0.93750000E+00  0.21141325E+01
 -0.31250000E+00  0.12500000E+00 -0.93750000E+00  0.20697893E+01
 -0.25000000E+00  0.12500000E+00 -0.93750000E+00  0.20327891E+01
 -0.18750000E+00  0.12500000E+00 -0.93750000E+00  0.20035388E+01
 -0.12500000E+00  0.12500000E+00 -0.93750000E+00  0.19823815E+01
 -0.62500000E-01  0.12500000E+00 -0.93750000E+00  0.19695780E+01
  0.00000000E+00  0.12500000E+00 -0.93750000E+00  0.19652917E+01
  0.62500000E-01  0.12500000E+00 -0.93750000E+00  0.19695780E+01
  0.12500000E+00  0.12500000E+00 -0.93750000E+00  0.19823815E+01
  0.18750000E+00  0.12500000E+00 -0.93750000E+00  0.20035388E+01
  0.25000000E+00  0.12500000E+00 -0.93750000E+00  0.20327891E+01
  0.31250000E+00  0.12500000E+00 -0.93750000E+00  0.20697893E+01
  0.37500000E+00  0.12500000E+00 -0.93750000E+00  0.21141325E+01
  0.43750000E+00  0.12500000E+00 -0.93750000E+00  0.21653678E+01
  0.50000000E+00  0.12500000E+00 -0.93750000E+00  0.22230185E+01
 -0.43750000E+00  0.18750000E+00 -0.93750000E+00  0.21847537E+01
 -0.37500000E+00  0.18750000E+00 -0.93750000E+00  0.21339840E+01
 -0.31250000E+00  0.18750000E+00 -0.93750000E+00  0.20900619E+01
 -0.25000000E+00  0.18750000E+00 -0.93750000E+00  0.20534271E+01
 -0.18750000E+00  0.18750000E+00 -0.93750000E+00  0.20244750E+01
 -0.12500000E+00  0.18750000E+00 -0.93750000E+00  0.20035388E+01
 -0.62500000E-01  0.18750000E+00 -0.93750000E+00  0.19908714E+01
  0.00000000E+00  0.18750000E+00 -0.93750000E+00  0.19866310E+01
  0.62500000E-01  0.18750000E+00 -0.93750000E+00  0.19908714E+01
  0.12500000E+00  0.18750000E+00 -0.93750000E+00  0.20035388E+01
  0.18750000E+00  0.18750000E+00 -0.93750000E+00  0.20244750E+01
  0.25000000E+00  0.18750000E+00 -0.93750000E+00  0.20534271E+01
  0.31250000E+00  0.18750000E+00 -0.93750000E+00  0.20900619E+01
  0.37500000E+00  0.18750000E+00 -0.93750000E+00  0.21339840E+01
  0.43750000E+00  0.18750000E+00 -0.93750000E+00  0.21847537E+01
  0.50000000E+00  0.18750000E+00 -0.93750000E+00  0.22419060E+01
 -0.43750000E+00  0.25000000E+00 -0.93750000E+00  0.22116086E+01
 -0.37500000E+00  0.25000000E+00 -0.93750000E+00  0.21614697E+01
 -0.31250000E+00  0.25000000E+00 -0.93750000E+00  0.21181177E+01
 -0.25000000E+00  0.25000000E+00 -0.93750000E+00  0.20819766E+01
 -0.18750000E+00  0.25000000E+00 -0.93750000E+00  0.20534271E+01
 -0.12500000E+00  0.25000000E+00 -0.93750000E+00  0.20327891E+01
 -0.62500000E-01  0.25000000E+00 -0.93750000E+00  0.20203051E+01
  0.00000000E+00  0.25000000E+00 -0.93750000E+00  0.20161266E+01
  0.62500000E-01  0.25000000E+00 -0.93750000E+00  0.20203051E+01
  0.12500000E+00  0.25000000E+00 -0.93750000E+00  0.20327891E+01
  0.18750000E+00  0.25000000E+00 -0.93750000E+00  0.20534271E+01
  0.25000000E+00  0.25000000E+00 -0.93750000E+00  0.20819766E+01
  0.31250000E+00  0.25000000E+00 -0.93750000E+00  0.21181177E+01
  0.37500000E+00  0.25000000E+00 -0.93750000E+00  0.21614697E+01
  0.43750000E+00  0.25000000E+00 -0.93750000E+00  0.22116086E+01
  0.50000000E+00  0.25000000E+00 -0.93750000E+00  0.22680843E+01
 -0.43750000E+00  0.31250000E+00 -0.93750000E+00  0.22456645E+01
 -0.37500000E+00  0.31250000E+00 -0.93750000E+00  0.21963032E+01
 -0.31250000E+00  0.31250000E+00 -0.93750000E+00  0.21536525E+01
 -0.25000000E+00  0.31250000E+00 -0.93750000E+00  0.21181177E+01
 -0.18750000E+00  0.31250000E+00 -0.93750000E+00  0.20900619E+01
 -0.12500000E+00  0.31250000E+00 -0.93750000E+00  0.20697893E+01
 -0.62500000E-01  0.31250000E+00 -0.93750000E+00  0.20575298E+01
  0.00000000E+00  0.31250000E+00 -0.93750000E+00  0.20534271E+01
  0.62500000E-01  0.31250000E+00 -0.93750000E+00  0.20575298E+01
  0.12500000E+00  0.31250000E+00 -0.93750000E+00  0.20697893E+01
  0.18750000E+00  0.31250000E+00 -0.93750000E+00  0.20900619E+01
  0.25000000E+00  0.31250000E+00 -0.93750000E+00  0.21181177E+01
  0.31250000E+00  0.31250000E+00 -0.93750000E+00  0.21536525E+01
  0.37500000E+00  0.31250000E+00 -0.93750000E+00  0.21963032E+01
  0.43750000E+00  0.31250000E+00 -0.93750000E+00  0.22456645E+01
  0.50000000E+00  0.31250000E+00 -0.93750000E+00  0.23013046E+01
 -0.43750000E+00  0.37500000E+00 -0.93750000E+00  0.22865996E+01
 -0.37500000E+00  0.37500000E+00 -0.93750000E+00  0.22381413E+01
 -0.31250000E+00  0.37500000E+00 -0.93750000E+00  0.21963032E+01
 -0.25000000E+00  0.37500000E+00 -0.93750000E+00  0.21614697E+01
 -0.18750000E+00  0.37500000E+00 -0.93750000E+00  0.21339840E+01
 -0.12500000E+00  0.37500000E+00 -0.93750000E+00  0.21141325E+01
 -0.62500000E-01  0.37500000E+00 -0.93750000E+00  0.21021317E+01
  0.00000000E+00  0.37500000E+00 -0.93750000E+00  0.20981162E+01
  0.62500000E-01  0.37500000E+00 -0.93750000E+00  0.21021317E+01
  0.12500000E+00  0.37500000E+00 -0.93750000E+00  0.21141325E+01
  0.18750000E+00  0.37500000E+00 -0.93750000E+00  0.21339840E+01
  0.25000000E+00  0.37500000E+00 -0.93750000E+00  0.21614697E+01
  0.31250000E+00  0.37500000E+00 -0.93750000E+00  0.21963032E+01
  0.37500000E+00  0.37500000E+00 -0.93750000E+00  0.22381413E+01
  0.43750000E+00  0.37500000E+00 -0.93750000E+00  0.22865996E+01
  0.50000000E+00  0.37500000E+00 -0.93750000E+00  0.23412671E+01
 -0.43750000E+00  0.43750000E+00 -0.93750000E+00  0.23340520E+01
 -0.37500000E+00  0.43750000E+00 -0.93750000E+00  0.22865996E+01
 -0.31250000E+00  0.43750000E+00 -0.93750000E+00  0.22456645E+01
 -0.25000000E+00  0.43750000E+00 -0.93750000E+00  0.22116086E+01
 -0.18750000E+00  0.43750000E+00 -0.93750000E+00  0.21847537E+01
 -0.12500000E+00  0.43750000E+00 -0.93750000E+00  0.21653678E+01
 -0.62500000E-01  0.43750000E+00 -0.93750000E+00  0.21536525E+01
  0.00000000E+00  0.43750000E+00 -0.93750000E+00  0.21497332E+01
  0.62500000E-01  0.43750000E+00 -0.93750000E+00  0.21536525E+01
  0.12500000E+00  0.43750000E+00 -0.93750000E+00  0.21653678E+01
  0.18750000E+00  0.43750000E+00 -0.93750000E+00  0.21847537E+01
  0.25000000E+00  0.43750000E+00 -0.93750000E+00  0.22116086E+01
  0.31250000E+00  0.43750000E+00 -0.93750000E+00  0.22456645E+01
  0.37500000E+00  0.43750000E+00 -0.93750000E+00  0.22865996E+01
  0.43750000E+00  0.43750000E+00 -0.93750000E+00  0.23340520E+01
  0.50000000E+00  0.43750000E+00 -0.93750000E+00  0.23876333E+01
 -0.43750000E+00  0.50000000E+00 -0.93750000E+00  0.23876333E+01
 -0.37500000E+00  0.50000000E+00 -0.93750000E+00  0.23412671E+01
 -0.31250000E+00  0.50000000E+00 -0.93750000E+00  0.23013046E+01
 -0.25000000E+00  0.50000000E+00 -0.93750000E+00  0.22680843E+01
 -0.18750000E+00  0.50000000E+00 -0.93750000E+00  0.22419060E+01
 -0.12500000E+00  0.50000000E+00 -0.93750000E+00  0.22230185E+01
 -0.62500000E-01  0.50000000E+00 -0.93750000E+00  0.22116086E+01
  0.00000000E+00  0.50000000E+00 -0.93750000E+00  0.22077922E+01
  0.62500000E-01  0.50000000E+00 -0.93750000E+00  0.22116086E+01
  0.12500000E+00  0.50000000E+00 -0.93750000E+00  0.22230185E+01
  0.18750000E+00  0.50000000E+00 -0.93750000E+00  0.22419060E+01
  0.25000000E+00  0.50000000E+00 -0.93750000E+00  0.22680843E+01
  0.31250000E+00  0.50000000E+00 -0.93750000E+00  0.23013046E+01
  0.37500000E+00  0.50000000E+00 -0.93750000E+00  0.23412671E+01
  0.43750000E+00  0.50000000E+00 -0.93750000E+00  0.23876333E+01
  0.50000000E+00  0.50000000E+00 -0.93750000E+00  0.24400382E+01
 -0.43750000E+00 -0.43750000E+00 -0.87500000E+00  0.22268089E+01
 -0.37500000E+00 -0.43750000E+00 -0.87500000E+00  0.21770201E+01
 -0.31250000E+00 -0.43750000E+00 -0.87500000E+00  0.21339840E+01
 -0.25000000E+00 -0.43750000E+00 -0.87500000E+00  0.20981162E+01
 -0.18750000E+00 -0.43750000E+00 -0.87500000E+00  0.20697893E+01
 -0.12500000E+00 -0.43750000E+00 -0.87500000E+00  0.20493161E+01
 -0.62500000E-01 -0.43750000E+00 -0.87500000E+00  0.20369334E+01
  0.00000000E+00 -0.43750000E+00 -0.87500000E+00  0.20327891E+01
  0.62500000E-01 -0.43750000E+00 -0.87500000E+00  0.20369334E+01
  0.12500000E+00 -0.43750000E+00 -0.87500000E+00  0.20493161E+01
  0.18750000E+00 -0.43750000E+00 -0.87500000E+00  0.20697893E+01
  0.25000000E+00 -0.43750000E+00 -0.87500000E+00  0.20981162E+01
  0.31250000E+00 -0.43750000E+00 -0.87500000E+00  0.21339840E+01
  0.37500000E+00 -0.43750000E+00 -0.87500000E+00  0.21770201E+01
  0.43750000E+00 -0.43750000E+00 -0.87500000E+00  0.22268089E+01
  0.50000000E+00 -0.43750000E+00 -0.87500000E+00  0.22829085E+01
 -0.43750000E+00 -0.37500000E+00 -0.87500000E+00  0.21770201E+01
 -0.37500000E+00 -0.37500000E+00 -0.87500000E+00  0.21260657E+01
 -0.31250000E+00 -0.37500000E+00 -0.87500000E+00  0.20819766E+01
 -0.25000000E+00 -0.37500000E+00 -0.87500000E+00  0.20451969E+01
 -0.18750000E+00 -0.37500000E+00 -0.87500000E+00  0.20161266E+01
 -0.12500000E+00 -0.37500000E+00 -0.87500000E+00  0.19951028E+01
 -0.62500000E-01 -0.37500000E+00 -0.87500000E+00  0.19823815E+01
  0.00000000E+00 -0.37500000E+00 -0.87500000E+00  0.19781229E+01
  0.62500000E-01 -0.37500000E+00 -0.87500000E+00  0.19823815E+01
  0.12500000E+00 -0.37500000E+00 -0.87500000E+00  0.19951028E+01
  0.18750000E+00 -0.37500000E+00 -0.87500000E+00  0.20161266E+01
  0.25000000E+00 -0.37500000E+00 -0.87500000E+00  0.20451969E+01
  0.31250000E+00 -0.37500000E+00 -0.87500000E+00  0.20819766E+01
  0.37500000E+00 -0.37500000E+00 -0.87500000E+00  0.21260657E+01
  0.43750000E+00 -0.37500000E+00 -0.87500000E+00  0.21770201E+01
  0.50000000E+00 -0.37500000E+00 -0.87500000E+00  0.22343702E+01
 -0.43750000E+00 -0.31250000E+00 -0.87500000E+00  0.21339840E+01
 -0.37500000E+00 -0.31250000E+00 -0.87500000E+00  0.20819766E+01
 -0.31250000E+00 -0.31250000E+00 -0.87500000E+00  0.20369334E+01
 -0.25000000E+00 -0.31250000E+00 -0.87500000E+00  0.19993252E+01
 -0.18750000E+00 -0.31250000E+00 -0.87500000E+00  0.19695780E+01
 -0.12500000E+00 -0.31250000E+00 -0.87500000E+00  0.19480519E+01
 -0.62500000E-01 -0.31250000E+00 -0.87500000E+00  0.19350214E+01
  0.00000000E+00 -0.31250000E+00 -0.87500000E+00  0.19306583E+01
  0.62500000E-01 -0.31250000E+00 -0.87500000E+00  0.19350214E+01
  0.12500000E+00 -0.31250000E+00 -0.87500000E+00  0.19480519E+01
  0.18750000E+00 -0.31250000E+00 -0.87500000E+00  0.19695780E+01
  0.25000000E+00 -0.31250000E+00 -0.87500000E+00  0.19993252E+01
  0.31250000E+00 -0.31250000E+00 -0.87500000E+00  0.20369334E+01
  0.37500000E+00 -0.31250000E+00 -0.87500000E+00  0.20819766E+01
  0.43750000E+00 -0.31250000E+00 -0.87500000E+00  0.21339840E+01
  0.50000000E+00 -0.31250000E+00 -0.87500000E+00  0.21924601E+01
 -0.43750000E+00 -0.25000000E+00 -0.87500000E+00  0.20981162E+01
 -0.37500000E+00 -0.25000000E+00 -0.87500000E+00  0.20451969E+01
 -0.31250000E+00 -0.25000000E+00 -0.87500000E+00  0.19993252E+01
 -0.25000000E+00 -0.25000000E+00 -0.87500000E+00  0.19609960E+01
 -0.18750000E+00 -0.25000000E+00 -0.87500000E+00  0.19306583E+01
 -0.12500000E+00 -0.25000000E+00 -0.87500000E+00  0.19086933E+01
 -0.62500000E-01 -0.25000000E+00 -0.87500000E+00  0.18953921E+01
  0.00000000E+00 -0.25000000E+00 -0.87500000E+00  0.18909376E+01
  0.62500000E-01 -0.25000000E+00 -0.87500000E+00  0.18953921E+01
  0.12500000E+00 -0.25000000E+00 -0.87500000E+00  0.19086933E+01
  0.18750000E+00 -0.25000000E+00 -0.87500000E+00  0.19306583E+01
  0.25000000E+00 -0.25000000E+00 -0.87500000E+00  0.19609960E+01
  0.31250000E+00 -0.25000000E+00 -0.87500000E+00  0.19993252E+01
  0.37500000E+00 -0.25000000E+00 -0.87500000E+00  0.20451969E+01
  0.43750000E+00 -0.25000000E+00 -0.87500000E+00  0.20981162E+01
  0.50000000E+00 -0.25000000E+00 -0.87500000E+00  0.21575646E+01
 -0.43750000E+00 -0.18750000E+00 -0.87500000E+00  0.20697893E+01
 -0.37500000E+00 -0.18750000E+00 -0.87500000E+00  0.20161266E+01
 -0.31250000E+00 -0.18750000E+00 -0.87500000E+00  0.19695780E+01
 -0.25000000E+00 -0.18750000E+00 -0.87500000E+00  0.19306583E+01
 -0.18750000E+00 -0.18750000E+00 -0.87500000E+00  0.18998362E+01
 -0.12500000E+00 -0.18750000E+00 -0.87500000E+00  0.18775107E+01
 -0.62500000E-01 -0.18750000E+00 -0.87500000E+00  0.18639870E+01
  0.00000000E+00 -0.18750000E+00 -0.87500000E+00  0.18594573E+01
  0.62500000E-01 -0.18750000E+00 -0.87500000E+00  0.18639870E+01
  0.12500000E+00 -0.18750000E+00 -0.87500000E+00  0.18775107E+01
  0.18750000E+00 -0.18750000E+00 -0.87500000E+00  0.18998362E+01
  0.25000000E+00 -0.18750000E+00 -0.87500000E+00  0.19306583E+01
  0.31250000E+00 -0.18750000E+00 -0.87500000E+00  0.19695780E+01
  0.37500000E+00 -0.18750000E+00 -0.87500000E+00  0.20161266E+01
  0.43750000E+00 -0.18750000E+00 -0.87500000E+00  0.20697893E+01
  0.50000000E+00 -0.18750000E+00 -0.87500000E+00  0.21300285E+01
 -0.43750000E+00 -0.12500000E+00 -0.87500000E+00  0.20493161E+01
 -0.37500000E+00 -0.12500000E+00 -0.87500000E+00  0.19951028E+01
 -0.31250000E+00 -0.12500000E+00 -0.87500000E+00  0.19480519E+01
 -0.25000000E+00 -0.12500000E+00 -0.87500000E+00  0.19086933E+01
 -0.18750000E+00 -0.12500000E+00 -0.87500000E+00  0.18775107E+01
 -0.12500000E+00 -0.12500000E+00 -0.87500000E+00  0.18549165E+01
 -0.62500000E-01 -0.12500000E+00 -0.87500000E+00  0.18412269E+01
  0.00000000E+00 -0.12500000E+00 -0.87500000E+00  0.18366410E+01
  0.62500000E-01 -0.12500000E+00 -0.87500000E+00  0.18412269E+01
  0.12500000E+00 -0.12500000E+00 -0.87500000E+00  0.18549165E+01
  0.18750000E+00 -0.12500000E+00 -0.87500000E+00  0.18775107E+01
  0.25000000E+00 -0.12500000E+00 -0.87500000E+00  0.19086933E+01
  0.31250000E+00 -0.12500000E+00 -0.87500000E+00  0.19480519E+01
  0.37500000E+00 -0.12500000E+00 -0.87500000E+00  0.19951028E+01
  0.43750000E+00 -0.12500000E+00 -0.87500000E+00  0.20493161E+01
  0.50000000E+00 -0.12500000E+00 -0.87500000E+00  0.21101398E+01
 -0.43750000E+00 -0.62500000E-01 -0.87500000E+00  0.20369334E+01
 -0.37500000E+00 -0.62500000E-01 -0.87500000E+00  0.19823815E+01
 -0.31250000E+00 -0.62500000E-01 -0.87500000E+00  0.19350214E+01
 -0.25000000E+00 -0.62500000E-01 -0.87500000E+00  0.18953921E+01
 -0.18750000E+00 -0.62500000E-01 -0.87500000E+00  0.18639870E+01
 -0.12500000E+00 -0.62500000E-01 -0.87500000E+00  0.18412269E+01
 -0.62500000E-01 -0.62500000E-01 -0.87500000E+00  0.18274347E+01
  0.00000000E+00 -0.62500000E-01 -0.87500000E+00  0.18228141E+01
  0.62500000E-01 -0.62500000E-01 -0.87500000E+00  0.18274347E+01
  0.12500000E+00 -0.62500000E-01 -0.87500000E+00  0.18412269E+01
  0.18750000E+00 -0.62500000E-01 -0.87500000E+00  0.18639870E+01
  0.25000000E+00 -0.62500000E-01 -0.87500000E+00  0.18953921E+01
  0.31250000E+00 -0.62500000E-01 -0.87500000E+00  0.19350214E+01
  0.37500000E+00 -0.62500000E-01 -0.87500000E+00  0.19823815E+01
  0.43750000E+00 -0.62500000E-01 -0.87500000E+00  0.20369334E+01
  0.50000000E+00 -0.62500000E-01 -0.87500000E+00  0.20981162E+01
 -0.43750000E+00  0.00000000E+00 -0.87500000E+00  0.20327891E+01
 -0.37500000E+00  0.00000000E+00 -0.87500000E+00  0.19781229E+01
 -0.31250000E+00  0.00000000E+00 -0.87500000E+00  0.19306583E+01
 -0.25000000E+00  0.00000000E+00 -0.87500000E+00  0.18909376E+01
 -0.18750000E+00  0.00000000E+00 -0.87500000E+00  0.18594573E+01
 -0.12500000E+00  0.00000000E+00 -0.87500000E+00  0.18366410E+01
 -0.62500000E-01  0.00000000E+00 -0.87500000E+00  0.18228141E+01
  0.00000000E+00  0.00000000E+00 -0.87500000E+00  0.18181818E+01
  0.62500000E-01  0.00000000E+00 -0.87500000E+00  0.18228141E+01
  0.12500000E+00  0.00000000E+00 -0.87500000E+00  0.18366410E+01
  0.18750000E+00  0.00000000E+00 -0.87500000E+00  0.18594573E+01
  0.25000000E+00  0.00000000E+00 -0.87500000E+00  0.18909376E+01
  0.31250000E+00  0.00000000E+00 -0.87500000E+00  0.19306583E+01
  0.37500000E+00  0.00000000E+00 -0.87500000E+00  0.19781229E+01
  0.43750000E+00  0.00000000E+00 -0.87500000E+00  0.20327891E+01
  0.50000000E+00  0.00000000E+00 -0.87500000E+00  0.20940929E+01
 -0.43750000E+00  0.62500000E-01 -0.87500000E+00  0.20369334E+01
 -0.37500000E+00  0.62500000E-01 -0.87500000E+00  0.19823815E+01
 -0.31250000E+00  0.62500000E-01 -0.87500000E+00  0.19350214E+01
 -0.25000000E+00  0.62500000E-01 -0.87500000E+00  0.18953921E+01
 -0.18750000E+00  0.62500000E-01 -0.87500000E+00  0.18639870E+01
 -0.12500000E+00  0.62500000E-01 -0.87500000E+00  0.18412269E+01
 -0.62500000E-01  0.62500000E-01 -0.87500000E+00  0.18274347E+01
  0.00000000E+00  0.62500000E-01 -0.87500000E+00  0.18228141E+01
  0.62500000E-01  0.62500000E-01 -0.87500000E+00  0.18274347E+01
  0.12500000E+00  0.62500000E-01 -0.87500000E+00  0.18412269E+01
  0.18750000E+00  0.62500000E-01 -0.87500000E+00  0.18639870E+01
  0.25000000E+00  0.62500000E-01 -0.87500000E+00  0.18953921E+01
  0.31250000E+00  0.62500000E-01 -0.87500000E+00  0.19350214E+01
  0.37500000E+00  0.62500000E-01 -0.87500000E+00  0.19823815E+01
  0.43750000E+00  0.62500000E-01 -0.87500000E+00  0.20369334E+01
  0.50000000E+00  0.62500000E-01 -0.87500000E+00  0.20981162E+01
 -0.43750000E+00  0.12500000E+00 -0.87500000E+00  0.20493161E+01
 -0.37500000E+00  0.12500000E+00 -0.87500000E+00  0.19951028E+01
 -0.31250000E+00  0.12500000E+00 -0.87500000E+00  0.19480519E+01
 -0.25000000E+00  0.12500000E+00 -0.87500000E+00  0.19086933E+01
 -0.18750000E+00  0.12500000E+00 -0.87500000E+00  0.18775107E+01
 -0.12500000E+00  0.12500000E+00 -0.87500000E+00  0.18549165E+01
 -0.62500000E-01  0.12500000E+00 -0.87500000E+00  0.18412269E+01
  0.00000000E+00  0.12500000E+00 -0.87500000E+00  0.18366410E+01
  0.62500000E-01  0.12500000E+00 -0.87500000E+00  0.18412269E+01
  0.12500000E+00  0.12500000E+00 -0.87500000E+00  0.18549165E+01
  0.18750000E+00  0.12500000E+00 -0.87500000E+00  0.18775107E+01
  0.25000000E+00  0.12500000E+00 -0.87500000E+00  0.19086933E+01
  0.31250000E+00  0.12500000E+00 -0.87500000E+00  0.19480519E+01
  0.37500000E+00  0.12500000E+00 -0.87500000E+00  0.19951028E+01
  0.43750000E+00  0.12500000E+00 -0.87500000E+00  0.20493161E+01
  0.50000000E+00  0.12500000E+00 -0.87500000E+00  0.21101398E+01
 -0.43750000E+00  0.18750000E+00 -0.87500000E+00  0.20697893E+01
 -0.37500000E+00  0.18750000E+00 -0.87500000E+00  0.20161266E+01
 -0.31250000E+00  0.18750000E+00 -0.87500000E+00  0.19695780E+01
 -0.25000000E+00  0.18750000E+00 -0.87500000E+00  0.19306583E+01
 -0.18750000E+00  0.18750000E+00 -0.87500000E+00  0.18998362E+01
 -0.12500000E+00  0.18750000E+00 -0.87500000E+00  0.18775107E+01
 -0.62500000E-01  0.18750000E+00 -0.87500000E+00  0.18639870E+01
  0.00000000E+00  0.18750000E+00 -0.87500000E+00  0.18594573E+01
  0.62500000E-01  0.18750000E+00 -0.87500000E+00  0.18639870E+01
  0.12500000E+00  0.18750000E+00 -0.87500000E+00  0.18775107E+01
  0.18750000E+00  0.18750000E+00 -0.87500000E+00  0.18998362E+01
  0.25000000E+00  0.18750000E+00 -0.87500000E+00  0.19306583E+01
  0.31250000E+00  0.18750000E+00 -0.87500000E+00  0.19695780E+01
  0.37500000E+00  0.18750000E+00 -0.87500000E+00  0.20161266E+01
  0.43750000E+00  0.18750000E+00 -0.87500000E+00  0.20697893E+01
  0.50000000E+00  0.18750000E+00 -0.87500000E+00  0.21300285E+01
 -0.43750000E+00  0.25000000E+00 -0.87500000E+00  0.20981162E+01
 -0.37500000E+00  0.25000000E+00 -0.87500000E+00  0.20451969E+01
 -0.31250000E+00  0.25000000E+00 -0.87500000E+00  0.19993252E+01
 -0.25000000E+00  0.25000000E+00 -0.87500000E+00  0.19609960E+01
 -0.18750000E+00  0.25000000E+00 -0.87500000E+00  0.19306583E+01
 -0.12500000E+00  0.25000000E+00 -0.87500000E+00  0.19086933E+01
 -0.62500000E-01  0.25000000E+00 -0.87500000E+00  0.18953921E+01
  0.00000000E+00  0.25000000E+00 -0.87500000E+00  0.18909376E+01
  0.62500000E-01  0.25000000E+00 -0.87500000E+00  0.18953921E+01
  0.12500000E+00  0.25000000E+00 -0.87500000E+00  0.19086933E+01
  0.18750000E+00  0.25000000E+00 -0.87500000E+00  0.19306583E+01
  0.25000000E+00  0.25000000E+00 -0.87500000E+00  0.19609960E+01
  0.31250000E+00  0.25000000E+00 -0.87500000E+00  0.19993252E+01
  0.37500000E+00  0.25000000E+00 -0.87500000E+00  0.20451969E+01
  0.43750000E+00  0.25000000E+00 -0.87500000E+00  0.20981162E+01
  0.50000000E+00  0.25000000E+00 -0.87500000E+00  0.21575646E+01
 -0.43750000E+00  0.31250000E+00 -0.87500000E+00  0.21339840E+01
 -0.37500000E+00  0.31250000E+00 -0.87500000E+00  0.20819766E+01
 -0.31250000E+00  0.31250000E+00 -0.87500000E+00  0.20369334E+01
 -0.25000000E+00  0.31250000E+00 -0.87500000E+00  0.19993252E+01
 -0.18750000E+00  0.31250000E+00 -0.87500000E+00  0.19695780E+01
 -0.12500000E+00  0.31250000E+00 -0.87500000E+00  0.19480519E+01
 -0.62500000E-01  0.31250000E+00 -0.87500000E+00  0.19350214E+01
  0.00000000E+00  0.31250000E+00 -0.87500000E+00  0.19306583E+01
  0.62500000E-01  0.31250000E+00 -0.87500000E+00  0.19350214E+01
  0.12500000E+00  0.31250000E+00 -0.87500000E+00  0.19480519E+01
  0.18750000E+00  0.31250000E+00 -0.87500000E+00  0.19695780E+01