 VARIABLES = "lfpx","lfpy","lfpz","theta","phi","radfp"
 ZONE T="Zone1" I=         746 , F=POINT
 
  0.46938617E+00 -0.10208930E+00  0.29256856E-01  0.15099654E+01  0.60690253E+01  0.48125000E+00
 -0.11199414E+00  0.16024603E+00  0.43975002E+00  0.41833577E+00  0.21807761E+01  0.48125000E+00
 -0.40333093E+00  0.14382893E+00 -0.21963369E+00  0.20447208E+01  0.27990478E+01  0.48125000E+00
  0.29268397E-01 -0.37395519E-01 -0.47890135E+00  0.30427565E+01  0.53764739E+01  0.48125000E+00
 -0.32221807E+00  0.89494463E-01 -0.34607487E+00  0.23733266E+01  0.28706762E+01  0.48125000E+00
  0.36085670E+00 -0.27152575E+00 -0.16630626E+00  0.19236440E+01  0.56381196E+01  0.48125000E+00
 -0.20254334E-01  0.47390752E+00 -0.81258748E-01  0.17404585E+01  0.16135093E+01  0.48125000E+00
 -0.58509499E-01 -0.89592269E-01 -0.46920297E+00  0.29173698E+01  0.41338627E+01  0.48125000E+00
  0.55381635E-01 -0.44710172E+00 -0.16921728E+00  0.19300977E+01  0.48356293E+01  0.48125000E+00
 -0.55207066E-01 -0.46341477E+00  0.11747551E+00  0.13241997E+01  0.45938168E+01  0.48125000E+00
  0.13875859E+00 -0.83844818E-02  0.46073563E+00  0.29303108E+00  0.62228337E+01  0.48125000E+00
  0.44698017E+00 -0.15508257E+00 -0.88089090E-01  0.17548764E+01  0.59492246E+01  0.48125000E+00
 -0.39263048E+00 -0.27664532E+00 -0.30170049E-01  0.16335285E+01  0.37553956E+01  0.48125000E+00
 -0.17045487E+00 -0.30848100E+00  0.32769829E+00  0.82176248E+00  0.42075809E+01  0.48125000E+00
 -0.27761352E+00 -0.88788228E-01 -0.38294771E+00  0.24910173E+01  0.34511384E+01  0.48125000E+00
  0.43976751E+00 -0.13202799E+00 -0.14413436E+00  0.18749648E+01  0.59915246E+01  0.48125000E+00
  0.71502781E-01  0.32924898E+00  0.34363356E+00  0.77553903E+00  0.13569476E+01  0.48125000E+00
 -0.41681220E+00 -0.18661853E+00  0.15179815E+00  0.12498921E+01  0.35625557E+01  0.48125000E+00
  0.23202640E+00  0.72090802E-02 -0.42156060E+00  0.26382396E+01  0.31060094E-01  0.48125000E+00
 -0.24637297E-01 -0.23716853E+00 -0.41802590E+00  0.26232172E+01  0.46088793E+01  0.48125000E+00
 -0.45482505E+00 -0.83328658E-01  0.13338692E+00  0.12899513E+01  0.33227934E+01  0.48125000E+00
 -0.38087242E+00  0.69392340E-01 -0.28587141E+00  0.22068414E+01  0.29613762E+01  0.48125000E+00
 -0.37895654E+00  0.10725325E+00 -0.27656870E+00  0.21830194E+01  0.28657833E+01  0.48125000E+00
 -0.15775194E-01 -0.44788928E+00 -0.17535079E+00  0.19437475E+01  0.46771823E+01  0.48125000E+00
 -0.54405828E-01  0.88151283E-01 -0.46996906E+00  0.29246454E+01  0.21237576E+01  0.48125000E+00
  0.19210309E+00  0.38850455E+00  0.20919412E+00  0.11211033E+01  0.11115840E+01  0.48125000E+00
 -0.27741002E+00  0.54822970E-01  0.38940940E+00  0.62807111E+00  0.29464824E+01  0.48125000E+00
 -0.21588446E+00 -0.60098051E-01 -0.42589164E+00  0.26572251E+01  0.34130991E+01  0.48125000E+00
 -0.87234354E-01 -0.14508317E+00  0.45049151E+00  0.35946186E+00  0.41710352E+01  0.48125000E+00
  0.12268303E-01  0.27054212E+00  0.39781655E+00  0.59770055E+00  0.15254803E+01  0.48125000E+00
 -0.20802516E+00 -0.10389282E+00  0.42134710E+00  0.50427204E+00  0.36047796E+01  0.48125000E+00
 -0.20826961E+00 -0.60197448E-01  0.42965288E+00  0.46730581E+00  0.34229608E+01  0.48125000E+00
 -0.18906936E+00  0.12626170E+00  0.42416073E+00  0.49203579E+00  0.25528015E+01  0.48125000E+00
 -0.24942888E+00  0.26136301E+00 -0.31792480E+00  0.22924446E+01  0.23328348E+01  0.48125000E+00
  0.30859242E+00 -0.92469603E-01  0.35752154E+00  0.73340126E+00  0.59920500E+01  0.48125000E+00
  0.25710495E+00 -0.40657869E+00  0.13870108E-01  0.15419713E+01  0.52762649E+01  0.48125000E+00
 -0.12782574E+00 -0.17918373E+00 -0.42796651E+00  0.26665672E+01  0.40927408E+01  0.48125000E+00
 -0.20548931E-01  0.25214201E-01 -0.48014951E+00  0.30739522E+01  0.22546016E+01  0.48125000E+00
 -0.38244290E-01  0.47269839E-01 -0.47739344E+00  0.30149092E+01  0.22510393E+01  0.48125000E+00
 -0.12669978E+00  0.42995607E+00 -0.17517566E+00  0.19433567E+01  0.18573660E+01  0.48125000E+00
  0.99825312E-01 -0.32117378E+00 -0.34421487E+00  0.23677805E+01  0.50137371E+01  0.48125000E+00
 -0.18724855E+00 -0.29902574E-01 -0.44231819E+00  0.27365935E+01  0.32999501E+01  0.48125000E+00
  0.40201914E-01  0.22837575E+00 -0.42169881E+00  0.26388353E+01  0.13965475E+01  0.48125000E+00
 -0.12700325E+00  0.37829383E+00 -0.26900840E+00  0.21639497E+01  0.18946991E+01  0.48125000E+00
  0.23276905E+00  0.83818399E-01  0.41278881E+00  0.53993326E+00  0.34563749E+00  0.48125000E+00
 -0.12176549E-01 -0.13047847E+00  0.46306443E+00  0.27578479E+00  0.46193362E+01  0.48125000E+00
 -0.20274527E+00 -0.43637040E+00 -0.87631480E-02  0.15890065E+01  0.42774459E+01  0.48125000E+00
 -0.11086828E-01  0.36179619E-01 -0.47976002E+00  0.30628824E+01  0.18681495E+01  0.48125000E+00
 -0.16295228E+00  0.41787688E+00 -0.17443346E+00  0.19417014E+01  0.19426115E+01  0.48125000E+00
  0.61325194E-01  0.38436569E+00 -0.28302614E+00  0.21995117E+01  0.14125808E+01  0.48125000E+00
  0.24219511E-02  0.47111978E+00  0.98192943E-01  0.13653161E+01  0.15656555E+01  0.48125000E+00
 -0.45064065E+00  0.54271295E-01  0.15993498E+00  0.12320208E+01  0.30217384E+01  0.48125000E+00
 -0.35856178E-01 -0.22957701E+00  0.42143836E+00  0.50387940E+00  0.45574570E+01  0.48125000E+00
  0.13282400E-02  0.96275278E-02 -0.48115186E+00  0.31213965E+01  0.14336991E+01  0.48125000E+00
  0.14337555E-01  0.65789039E-01  0.47651632E+00  0.14037375E+00  0.13562191E+01  0.48125000E+00
 -0.35412477E+00  0.17398817E+00  0.27554550E+00  0.96116884E+00  0.26849141E+01  0.48125000E+00
  0.24437152E+00 -0.18732589E+00  0.36985556E+00  0.69425429E+00  0.56291686E+01  0.48125000E+00
  0.41869673E+00 -0.32531902E-01  0.23502401E+00  0.10605851E+01  0.62056431E+01  0.48125000E+00
 -0.23622005E+00  0.66802518E-01  0.41393124E+00  0.53529760E+00  0.28659914E+01  0.48125000E+00
 -0.37472797E+00  0.10195230E+00  0.28422920E+00  0.93898658E+00  0.28759523E+01  0.48125000E+00
 -0.18339387E+00  0.10232748E+00  0.43300963E+00  0.45157649E+00  0.26326543E+01  0.48125000E+00
  0.28423639E-01 -0.17982161E+00 -0.44548608E+00  0.27536396E+01  0.48691577E+01  0.48125000E+00
 -0.29219126E+00 -0.37714877E+00 -0.63123984E-01  0.17023421E+01  0.40532430E+01  0.48125000E+00
 -0.47414997E+00 -0.32598747E-01 -0.75635240E-01  0.17286148E+01  0.32102366E+01  0.48125000E+00
  0.28845545E-02  0.36366648E+00  0.31518238E+00  0.85671372E+00  0.15628646E+01  0.48125000E+00
 -0.15216601E+00 -0.13128447E+00 -0.43727732E+00  0.27107836E+01  0.38534545E+01  0.48125000E+00
 -0.28968550E+00 -0.35872881E+00 -0.13783148E+00  0.18612668E+01  0.40330713E+01  0.48125000E+00
 -0.21431073E+00  0.42498281E+00  0.71148307E-01  0.14224118E+01  0.20378628E+01  0.48125000E+00
 -0.83022697E-01 -0.89176233E-02 -0.47395070E+00  0.29672031E+01  0.32485943E+01  0.48125000E+00
  0.45620776E-01  0.42112465E+00  0.22841703E+00  0.10762495E+01  0.14628863E+01  0.48125000E+00
  0.46937249E+00 -0.83284273E-01  0.65990625E-01  0.14332396E+01  0.61075756E+01  0.48125000E+00
 -0.25819890E-01 -0.30168154E-01  0.47960898E+00  0.82605587E-01  0.40044994E+01  0.48125000E+00
  0.45127912E+00 -0.15083520E+00  0.72093391E-01  0.14204258E+01  0.59606196E+01  0.48125000E+00
 -0.20844888E+00  0.32433445E+00 -0.28802394E+00  0.22124129E+01  0.21420207E+01  0.48125000E+00
 -0.15349013E-01 -0.11540505E+00 -0.46695572E+00  0.28972543E+01  0.45801638E+01  0.48125000E+00
  0.96164069E-01  0.46329161E+00 -0.87834609E-01  0.17543386E+01  0.13661355E+01  0.48125000E+00
  0.41767936E-02  0.72149274E-01  0.47579260E+00  0.15074182E+00  0.15129699E+01  0.48125000E+00
  0.18324916E+00 -0.18842063E+00 -0.40313642E+00  0.25638289E+01  0.54838739E+01  0.48125000E+00
  0.28827602E+00 -0.38520383E+00  0.10793931E-01  0.15483655E+01  0.53548478E+01  0.48125000E+00
 -0.11042325E+00  0.48979762E-01 -0.46584252E+00  0.28878690E+01  0.27241039E+01  0.48125000E+00
 -0.17193492E+00  0.19172605E+00  0.40654774E+00  0.56465265E+00  0.23018262E+01  0.48125000E+00
  0.13439971E-01  0.12059462E-01 -0.48091111E+00  0.31040623E+01  0.73131215E+00  0.48125000E+00
  0.27772740E-01  0.43872427E+00 -0.19583476E+00  0.19898863E+01  0.15075773E+01  0.48125000E+00
  0.35876622E+00  0.26481105E+00  0.18100683E+00  0.11851932E+01  0.63585179E+00  0.48125000E+00
 -0.41430397E+00 -0.14130625E+00  0.19996581E+00  0.11422892E+01  0.34702891E+01  0.48125000E+00
 -0.46142913E-01 -0.98207049E-01 -0.46885794E+00  0.29141679E+01  0.42731482E+01  0.48125000E+00
  0.66857639E-01 -0.34054550E+00  0.33340723E+00  0.80543966E+00  0.49062485E+01  0.48125000E+00
 -0.96612548E-02  0.96595503E-02 -0.48105604E+00  0.31132005E+01  0.23562827E+01  0.48125000E+00
  0.33303327E+00 -0.66054826E-01 -0.34106769E+00  0.23584673E+01  0.60873835E+01  0.48125000E+00
 -0.26197852E+00  0.28954258E+00  0.28130751E+00  0.94648940E+00  0.23062578E+01  0.48125000E+00
 -0.33795942E+00 -0.12485777E+00 -0.31905412E+00  0.22955748E+01  0.34954852E+01  0.48125000E+00
  0.10260176E+00 -0.47018043E+00 -0.21926344E-02  0.15753525E+01  0.49272388E+01  0.48125000E+00
  0.54277270E-01  0.12942118E+00 -0.46033216E+00  0.28456730E+01  0.11736914E+01  0.48125000E+00
 -0.41460550E+00  0.24397470E+00  0.13423465E-01  0.15428998E+01  0.26097089E+01  0.48125000E+00
  0.48627883E-01 -0.32026275E-01  0.47771457E+00  0.12128778E+00  0.57007888E+01  0.48125000E+00
  0.23880102E-01 -0.18027942E-01 -0.48031895E+00  0.30793790E+01  0.56365328E+01  0.48125000E+00
  0.18707289E-01 -0.45218460E-02  0.48086500E+00  0.40002423E-01  0.60460187E+01  0.48125000E+00
 -0.53977361E-01  0.43665129E+00  0.19499656E+00  0.11536122E+01  0.16937890E+01  0.48125000E+00
 -0.11149314E+00 -0.24263581E+00  0.40037321E+00  0.58819361E+00  0.42816562E+01  0.48125000E+00
  0.29338150E-01  0.21852321E-02 -0.48034994E+00  0.30804233E+01  0.74347032E-01  0.48125000E+00
 -0.43886955E+00 -0.90534944E-01  0.17549503E+00  0.11975233E+01  0.33450301E+01  0.48125000E+00
  0.36580682E-01 -0.71160965E-01  0.47455193E+00  0.16703578E+00  0.51872176E+01  0.48125000E+00
  0.19238682E-01 -0.35027580E+00 -0.32945152E+00  0.23248163E+01  0.47672582E+01  0.48125000E+00
 -0.24623655E+00 -0.83538255E-01 -0.40495738E+00  0.25707943E+01  0.34686678E+01  0.48125000E+00
  0.38199396E-01  0.35710069E-01 -0.47840063E+00  0.30327200E+01  0.75173013E+00  0.48125000E+00
 -0.64999383E-01  0.32643962E+00  0.34758282E+00  0.76374631E+00  0.17673418E+01  0.48125000E+00
  0.51514841E-01  0.14389071E+00  0.45633677E+00  0.32317387E+00  0.12270003E+01  0.48125000E+00
  0.43674592E+00 -0.43037434E-01  0.19749010E+00  0.11479376E+01  0.61849613E+01  0.48125000E+00
  0.19453668E-01  0.28686199E+00  0.38591880E+00  0.64031234E+00  0.15030846E+01  0.48125000E+00
 -0.82596998E-01  0.37108037E+00 -0.29509094E+00  0.22308712E+01  0.17898111E+01  0.48125000E+00
 -0.36636339E-01  0.18200279E+00 -0.44399811E+00  0.27455465E+01  0.17694372E+01  0.48125000E+00
  0.37890974E+00 -0.19765629E+00  0.22127125E+00  0.10930439E+01  0.58023722E+01  0.48125000E+00
  0.25219836E+00  0.10802996E+00 -0.39538219E+00  0.25349617E+01  0.40470736E+00  0.48125000E+00
 -0.17232960E+00  0.34157843E+00  0.29193877E+00  0.91898671E+00  0.20380451E+01  0.48125000E+00
  0.30114928E+00  0.76380041E-01 -0.36752790E+00  0.24398128E+01  0.24839079E+00  0.48125000E+00
 -0.23995377E+00  0.41263721E+00  0.61272206E-01  0.14431309E+01  0.20975113E+01  0.48125000E+00
  0.42528692E+00  0.16283594E+00  0.15561830E+00  0.12415154E+01  0.36566547E+00  0.48125000E+00
 -0.24573328E+00  0.39222631E+00  0.13181517E+00  0.12933488E+01  0.21304800E+01  0.48125000E+00
 -0.13021103E+00 -0.16382741E+00 -0.43336732E+00  0.26917224E+01  0.40408231E+01  0.48125000E+00
 -0.32742478E+00 -0.20431200E-01 -0.35210388E+00  0.23915275E+01  0.32039115E+01  0.48125000E+00
 -0.16681774E+00 -0.31309548E+00  0.32518399E+00  0.82887299E+00  0.42228458E+01  0.48125000E+00
  0.16159716E+00  0.27986356E-01  0.45244302E+00  0.34775151E+00  0.17148498E+00  0.48125000E+00
 -0.29796289E-01 -0.19821896E+00 -0.43751913E+00  0.27119884E+01  0.45631860E+01  0.48125000E+00
  0.63560666E-02  0.11591037E+00  0.46703956E+00  0.24361717E+00  0.15160151E+01  0.48125000E+00
 -0.23964399E+00  0.18066786E+00 -0.37620665E+00  0.24682285E+01  0.24955995E+01  0.48125000E+00
 -0.12874265E+00 -0.35357230E+00  0.30002253E+00  0.89768277E+00  0.43631911E+01  0.48125000E+00
 -0.64632922E-01 -0.22146794E-01  0.47637555E+00  0.14244905E+00  0.34717091E+01  0.48125000E+00
  0.30475035E-01 -0.23385210E+00  0.41950689E+00  0.51213018E+00  0.48419763E+01  0.48125000E+00
  0.15518648E+00  0.22655737E+00  0.39520941E+00  0.60726042E+00  0.97022456E+00  0.48125000E+00
  0.30969834E+00  0.33571042E+00  0.15161469E+00  0.12502938E+01  0.82567962E+00  0.48125000E+00
  0.21525094E-01 -0.61216605E-01  0.47685507E+00  0.13524978E+00  0.50505079E+01  0.48125000E+00
  0.25759590E+00 -0.26967775E+00  0.30417072E+00  0.88660952E+00  0.54748773E+01  0.48125000E+00
 -0.10748484E+00 -0.46534848E+00 -0.59155406E-01  0.16940283E+01  0.44853928E+01  0.48125000E+00
  0.34241197E+00 -0.32555575E+00  0.91482579E-01  0.13795388E+01  0.55230169E+01  0.48125000E+00
  0.40546154E+00 -0.68138442E-01 -0.25011928E+00  0.21173293E+01  0.61166895E+01  0.48125000E+00
  0.34257843E+00  0.29554480E-02 -0.33798350E+00  0.23494243E+01  0.86268557E-02  0.48125000E+00
 -0.85956285E-01  0.31290690E-01 -0.47247643E+00  0.29503521E+01  0.27924738E+01  0.48125000E+00
 -0.16249095E+00 -0.18316051E+00 -0.41430723E+00  0.26078287E+01  0.39867185E+01  0.48125000E+00
  0.53743983E-01 -0.19410839E+00  0.43707560E+00  0.43181165E+00  0.49824986E+01  0.48125000E+00
  0.24085738E-01 -0.60822628E-01 -0.47678302E+00  0.30052370E+01  0.50894420E+01  0.48125000E+00
  0.66197028E-01 -0.38890187E+00 -0.27563537E+00  0.21806516E+01  0.48809883E+01  0.48125000E+00
 -0.21697683E+00 -0.69291039E-01 -0.42393557E+00  0.26485674E+01  0.34507037E+01  0.48125000E+00
 -0.15558885E+00 -0.12864159E+00  0.43685812E+00  0.43289017E+00  0.38324656E+01  0.48125000E+00
 -0.50238702E-01 -0.19428090E+00 -0.43741578E+00  0.27114731E+01  0.44593440E+01  0.48125000E+00
  0.47667403E+00 -0.12645370E-02 -0.66195401E-01  0.17087827E+01  0.62805325E+01  0.48125000E+00
 -0.73488598E-01  0.39616522E-01 -0.47395308E+00  0.29672315E+01  0.26471689E+01  0.48125000E+00
  0.24747405E+00  0.15039657E+00  0.38436835E+00  0.64568546E+00  0.54608148E+00  0.48125000E+00
 -0.15601270E+00 -0.45517607E+00  0.87373890E-02  0.15526397E+01  0.43821853E+01  0.48125000E+00
  0.35441614E+00  0.27248642E+00 -0.17816260E+00  0.19500292E+01  0.65544497E+00  0.48125000E+00
 -0.13143563E+00 -0.34407988E+00  0.30973420E+00  0.87159905E+00  0.43475028E+01  0.48125000E+00
  0.18061107E+00 -0.21772003E-01  0.44554145E+00  0.38764877E+00  0.61632178E+01  0.48125000E+00
  0.40923716E-01  0.41333460E-01 -0.47772205E+00  0.30204334E+01  0.79037938E+00  0.48125000E+00
 -0.22040119E+00 -0.28635996E+00 -0.31784092E+00  0.22922125E+01  0.40564207E+01  0.48125000E+00
 -0.23407546E-02 -0.31239947E+00  0.36606373E+00  0.70647957E+00  0.47048963E+01  0.48125000E+00
  0.44366789E+00  0.14032730E+00 -0.12275430E+00  0.18287204E+01  0.30633309E+00  0.48125000E+00
 -0.61024015E-01  0.31944829E+00  0.35472584E+00  0.74203826E+00  0.17595516E+01  0.48125000E+00
  0.71827815E-01  0.12480127E+00  0.45920254E+00  0.30386527E+00  0.10485582E+01  0.48125000E+00
  0.45048127E+00 -0.16894857E+00  0.11161216E-01  0.15476021E+01  0.59243794E+01  0.48125000E+00
  0.29024949E+00  0.27827881E+00 -0.26441956E+00  0.21524941E+01  0.76434572E+00  0.48125000E+00
  0.47083453E-04 -0.45302528E-03 -0.48124978E+00  0.31406462E+01  0.48159484E+01  0.48125000E+00
  0.34878460E+00  0.29931960E+00  0.14268372E+00  0.12697856E+01  0.70922324E+00  0.48125000E+00
 -0.28326278E+00 -0.24226564E+00 -0.30441931E+00  0.22556499E+01  0.38491372E+01  0.48125000E+00
  0.23454313E+00  0.23978765E+00  0.34509849E+00  0.77118137E+00  0.79645438E+00  0.48125000E+00
  0.35424946E-01  0.37384469E+00 -0.30097638E+00  0.22464474E+01  0.14763200E+01  0.48125000E+00
 -0.44520408E+00 -0.18272097E+00  0.28181742E-02  0.15649403E+01  0.35310500E+01  0.48125000E+00
  0.36866577E-01  0.80258859E-01  0.47307603E+00  0.18457067E+00  0.11401976E+01  0.48125000E+00
  0.29608317E-01  0.88571791E-01  0.47210163E+00  0.19529535E+00  0.12481885E+01  0.48125000E+00
  0.62180457E-01  0.36565738E-01  0.47581309E+00  0.15045800E+00  0.53159261E+00  0.48125000E+00
 -0.42237018E+00 -0.13391912E+00 -0.18780486E+00  0.19716928E+01  0.34486316E+01  0.48125000E+00
  0.13945301E+00 -0.20590484E+00 -0.41201652E+00  0.25985458E+01  0.53076959E+01  0.48125000E+00
 -0.14916862E+00 -0.19772377E+00  0.41262040E+00  0.54061361E+00  0.40660591E+01  0.48125000E+00
 -0.38785754E-02 -0.19447279E+00  0.44018957E+00  0.41608179E+00  0.46924476E+01  0.48125000E+00
  0.25204882E+00  0.42449154E-01 -0.40776344E+00  0.25816784E+01  0.16685063E+00  0.48125000E+00
  0.16137232E+00  0.13975083E+00 -0.43131224E+00  0.26819999E+01  0.71371836E+00  0.48125000E+00
  0.13444998E+00  0.42157490E+00 -0.18920721E+00  0.19748598E+01  0.12620705E+01  0.48125000E+00
 -0.10524263E+00 -0.14222136E+00 -0.44754736E+00  0.27651236E+01  0.40753240E+01  0.48125000E+00
 -0.83089044E-01 -0.42278508E+00 -0.21436080E+00  0.20324453E+01  0.45183342E+01  0.48125000E+00
 -0.76344575E-01  0.46006258E+00 -0.11880865E+00  0.18202505E+01  0.17352417E+01  0.48125000E+00
  0.19313552E+00  0.42032687E+00 -0.13276127E+00  0.18502885E+01  0.11400795E+01  0.48125000E+00
 -0.73296981E-03 -0.13979973E-01 -0.48104634E+00  0.31124994E+01  0.46600070E+01  0.48125000E+00
  0.26642770E-01 -0.46793784E+00 -0.10920580E+00  0.17997115E+01  0.47692641E+01  0.48125000E+00
 -0.32349148E+00 -0.13076019E+00  0.33144622E+00  0.81107501E+00  0.35257276E+01  0.48125000E+00
 -0.17793451E-01 -0.11063717E+00  0.46802176E+00  0.23500680E+00  0.45529274E+01  0.48125000E+00
 -0.23707592E+00 -0.38431437E+00 -0.16643028E+00  0.19239186E+01  0.41596500E+01  0.48125000E+00
  0.51182095E-01  0.20359368E+00 -0.43304915E+00  0.26902044E+01  0.13245067E+01  0.48125000E+00
 -0.86508232E-01 -0.43701053E+00  0.18204309E+00  0.11828681E+01  0.45169609E+01  0.48125000E+00
 -0.45651163E+00 -0.10006781E+00  0.11482652E+00  0.13298718E+01  0.33573807E+01  0.48125000E+00
 -0.29227910E+00  0.24895940E+00 -0.29016152E+00  0.22179688E+01  0.24360623E+01  0.48125000E+00
 -0.44827714E-01 -0.24810759E-01  0.47851485E+00  0.10666596E+00  0.36470955E+01  0.48125000E+00
  0.37323575E+00  0.13791416E+00  0.27069600E+00  0.97340781E+00  0.35394842E+00  0.48125000E+00
 -0.27585247E+00  0.33604714E+00  0.20634751E+00  0.11276610E+01  0.22581366E+01  0.48125000E+00
  0.19656459E+00 -0.13424197E+00 -0.41826190E+00  0.26242078E+01  0.56840005E+01  0.48125000E+00
 -0.13684588E+00 -0.35388136E-02  0.46136996E+00  0.28843283E+00  0.31674467E+01  0.48125000E+00
  0.12912536E+00 -0.23052591E+00 -0.40222631E+00  0.25603754E+01  0.52229792E+01  0.48125000E+00
  0.40543219E+00 -0.16987473E+00 -0.19587975E+00  0.19899887E+01  0.58864105E+01  0.48125000E+00
 -0.10404555E-01 -0.23655039E-01 -0.48055566E+00  0.30878689E+01  0.42980118E+01  0.48125000E+00
  0.43163701E+00  0.19212271E+00  0.91541862E-01  0.13794133E+01  0.41877371E+00  0.48125000E+00
  0.11500591E-01 -0.14656978E+00 -0.45824295E+00  0.28311326E+01  0.47906935E+01  0.48125000E+00
  0.11562894E+00 -0.39689980E-01  0.46546344E+00  0.25684299E+00  0.59525338E+01  0.48125000E+00
 -0.58310005E-01  0.75936667E-01 -0.47163029E+00  0.29413130E+01  0.22256408E+01  0.48125000E+00
  0.85571621E-01 -0.81827770E-01  0.46645823E+00  0.24857558E+00  0.55201482E+01  0.48125000E+00
 -0.80467648E-01  0.13643099E+00 -0.45443713E+00  0.28062116E+01  0.21036856E+01  0.48125000E+00
 -0.23168018E-01 -0.35554198E+00 -0.32350380E+00  0.23079938E+01  0.46473184E+01  0.48125000E+00
  0.16754461E+00 -0.11844100E+00  0.43531838E+00  0.44045520E+00  0.56678287E+01  0.48125000E+00
  0.16902088E+00  0.13491295E-02 -0.45059037E+00  0.27827152E+01  0.79818591E-02  0.48125000E+00
  0.49758871E-01  0.11831907E+00 -0.46381701E+00  0.28716103E+01  0.11727024E+01  0.48125000E+00
  0.23678488E+00  0.41717343E+00  0.38740356E-01  0.14902097E+01  0.10545461E+01  0.48125000E+00
  0.20594816E-01 -0.55139834E-01 -0.47763691E+00  0.30189783E+01  0.50698453E+01  0.48125000E+00
 -0.16218366E+00  0.61648760E-01  0.44888468E+00  0.36883670E+00  0.27783434E+01  0.48125000E+00
 -0.29886693E+00 -0.20970553E+00  0.31353422E+00  0.86123678E+00  0.37534376E+01  0.48125000E+00
  0.29726671E+00 -0.36410726E+00 -0.10324711E+00  0.17870166E+01  0.53970660E+01  0.48125000E+00
  0.65765414E-01 -0.45390013E-02 -0.47671361E+00  0.30041801E+01  0.62142765E+01  0.48125000E+00
  0.11261958E+00 -0.20745224E-01  0.46742703E+00  0.24025661E+00  0.61010212E+01  0.48125000E+00
 -0.76661725E-01 -0.39449426E+00  0.26476182E+00  0.98824716E+00  0.45204521E+01  0.48125000E+00
 -0.18390165E+00  0.22170576E-01 -0.44417363E+00  0.27464929E+01  0.30216150E+01  0.48125000E+00
 -0.27599522E+00 -0.39365442E+00  0.21549960E-01  0.15260022E+01  0.41009182E+01  0.48125000E+00
  0.11351481E+00 -0.19599465E+00  0.42461988E+00  0.49001238E+00  0.52373537E+01  0.48125000E+00
 -0.14201325E+00 -0.10816219E+00  0.44691693E+00  0.38001642E+00  0.37924984E+01  0.48125000E+00
 -0.28548151E-02 -0.30446218E+00  0.37268780E+00  0.68500450E+00  0.47030127E+01  0.48125000E+00
 -0.32551308E+00 -0.32296334E+00 -0.14607353E+00  0.18791910E+01  0.39230589E+01  0.48125000E+00
 -0.47145955E+00 -0.96119915E-01  0.94029740E-02  0.15512564E+01  0.33427136E+01  0.48125000E+00
  0.55993513E-03  0.43570452E-01  0.47927327E+00  0.90667654E-01  0.15579458E+01  0.48125000E+00
  0.22091303E+00  0.42748671E+00  0.73555761E-02  0.15555114E+01  0.10938216E+01  0.48125000E+00
 -0.23033693E-01  0.10555968E-01  0.48058255E+00  0.52673317E-01  0.27118713E+01  0.48125000E+00
  0.40040729E+00 -0.83215948E-01 -0.25367434E+00  0.21259990E+01  0.60782740E+01  0.48125000E+00
  0.13078000E+00 -0.23888409E+00  0.39677771E+00  0.60152575E+00  0.52132817E+01  0.48125000E+00
  0.20036009E+00 -0.17845429E+00 -0.39951404E+00  0.25501892E+01  0.55555501E+01  0.48125000E+00
  0.66309179E-03  0.80706835E-02  0.48118186E+00  0.16827553E-01  0.14888199E+01  0.48125000E+00
 -0.12708075E+00 -0.90880271E-01  0.45518438E+00  0.33063103E+00  0.37624062E+01  0.48125000E+00
 -0.27412079E+00 -0.37882348E+00 -0.11380742E+00  0.18095409E+01  0.40859919E+01  0.48125000E+00
  0.11251439E+00 -0.86249851E-03  0.46791167E+00  0.23598727E+00  0.62755198E+01  0.48125000E+00
  0.99527874E-01 -0.78445316E-01 -0.46426512E+00  0.28751237E+01  0.56156968E+01  0.48125000E+00
  0.20088405E+00  0.28528598E+00 -0.33144995E+00  0.23305283E+01  0.95729072E+00  0.48125000E+00
  0.40807045E+00 -0.25329724E+00 -0.30341043E-01  0.16338845E+01  0.57276701E+01  0.48125000E+00
 -0.13766562E+00 -0.45857779E+00  0.48540207E-01  0.14697618E+01  0.44207476E+01  0.48125000E+00
 -0.24503148E+00 -0.10391124E+00 -0.40095335E+00  0.25555752E+01  0.35426779E+01  0.48125000E+00
 -0.37513809E+00 -0.85223097E-01  0.28915393E+00  0.92624563E+00  0.33649791E+01  0.48125000E+00
 -0.44315410E+00  0.86024933E-01  0.16678046E+00  0.12168984E+01  0.29498576E+01  0.48125000E+00
  0.48052348E+00  0.22453633E-01 -0.13949311E-01  0.15997860E+01  0.46693478E-01  0.48125000E+00
  0.10885239E+00 -0.19757018E-01 -0.46836138E+00  0.29096360E+01  0.61036371E+01  0.48125000E+00
 -0.20999366E-01  0.47875125E+00 -0.44247403E-01  0.16628690E+01  0.16146310E+01  0.48125000E+00
  0.17271053E+00  0.37063036E+00 -0.25378292E+00  0.21262645E+01  0.11347239E+01  0.48125000E+00
  0.73154988E-02  0.40221680E+00 -0.26413953E+00  0.21517978E+01  0.15526104E+01  0.48125000E+00
  0.12219931E+00 -0.27563487E-01 -0.46466025E+00  0.28782597E+01  0.60613363E+01  0.48125000E+00
  0.47524144E+00  0.72401839E-01  0.22474642E-01  0.15240788E+01  0.15118498E+00  0.48125000E+00
 -0.19362661E+00 -0.27754730E+00  0.34216632E+00  0.77988422E+00  0.41032523E+01  0.48125000E+00
  0.23087062E-02  0.44928756E+00 -0.17244397E+00  0.19372696E+01  0.15656578E+01  0.48125000E+00
  0.37463370E-01  0.14242860E+00 -0.45816171E+00  0.28305806E+01  0.13135898E+01  0.48125000E+00
 -0.36778311E+00 -0.36493189E-03 -0.31038205E+00  0.22717538E+01  0.31425849E+01  0.48125000E+00
  0.43580898E+00  0.17714650E+00  0.10144563E+00  0.13584070E+01  0.38607784E+00  0.48125000E+00
  0.74294425E-03 -0.53176911E-02 -0.48122005E+00  0.31304354E+01  0.48512023E+01  0.48125000E+00
  0.33426229E+00  0.32269355E-01 -0.34471579E+00  0.23692710E+01  0.96240783E-01  0.48125000E+00
 -0.45638835E+00 -0.12602247E+00  0.86194971E-01  0.13907182E+01  0.34110090E+01  0.48125000E+00
  0.40421077E+00 -0.19179525E+00  0.17728451E+00  0.11935268E+01  0.58401506E+01  0.48125000E+00
  0.99273386E-01  0.10127911E+00  0.45987922E+00  0.29913014E+00  0.79539884E+00  0.48125000E+00
  0.40779591E+00 -0.25542674E+00 -0.78251888E-02  0.15870572E+01  0.57236091E+01  0.48125000E+00
 -0.25504984E+00  0.68516597E-01  0.40231408E+00  0.58088502E+00  0.28791488E+01  0.48125000E+00
  0.47018297E+00 -0.72242269E-01  0.72873836E-01  0.14187854E+01  0.61307304E+01  0.48125000E+00
  0.22916434E+00 -0.50079016E-01  0.42021109E+00  0.50913614E+00  0.60680387E+01  0.48125000E+00
 -0.92220731E-01  0.43831381E+00  0.17600540E+00  0.11963841E+01  0.17781705E+01  0.48125000E+00
  0.31748690E+00 -0.31587717E+00  0.17613984E+00  0.11960840E+01  0.55003287E+01  0.48125000E+00
  0.40113007E+00  0.67317456E-02  0.26580240E+00  0.98565563E+00  0.16780377E-01  0.48125000E+00
  0.23506334E+00 -0.28388821E+00 -0.30944188E+00  0.22692002E+01  0.54039796E+01  0.48125000E+00
  0.84131516E-01 -0.86302610E-02  0.47376046E+00  0.17665347E+00  0.61809623E+01  0.48125000E+00
 -0.23472514E+00  0.36234693E+00 -0.21262730E+00  0.20284260E+01  0.21456172E+01  0.48125000E+00
 -0.36678618E+00  0.29379540E+00  0.10370014E+00  0.13536122E+01  0.24662428E+01  0.48125000E+00
  0.62691858E-02  0.14221195E-01  0.48099898E+00  0.32300100E-01  0.11555910E+01  0.48125000E+00
  0.26113915E+00 -0.54121965E-01  0.40059795E+00  0.58735142E+00  0.60788252E+01  0.48125000E+00
  0.44260292E-01 -0.33094465E+00 -0.34658077E+00  0.23748405E+01  0.48453393E+01  0.48125000E+00
 -0.81581268E-01 -0.46437573E+00  0.96442922E-01  0.13690292E+01  0.45384841E+01  0.48125000E+00
 -0.30553500E+00 -0.14618744E+00 -0.34187594E+00  0.23608507E+01  0.35878634E+01  0.48125000E+00
 -0.30044975E+00 -0.23925096E-01 -0.37517876E+00  0.24648108E+01  0.32210559E+01  0.48125000E+00
 -0.93538317E-01 -0.37909066E+00 -0.28132263E+00  0.21951420E+01  0.44704772E+01  0.48125000E+00
 -0.82784960E-03  0.40004917E-03 -0.48124912E+00  0.31396821E+01  0.26914436E+01  0.48125000E+00
  0.14280289E+00  0.36486056E+00 -0.27943813E+00  0.21903240E+01  0.11977341E+01  0.48125000E+00
  0.35214054E+00  0.16861839E+00  0.28136532E+00  0.94634133E+00  0.44657542E+00  0.48125000E+00
 -0.26782037E+00 -0.35228432E+00  0.18912844E+00  0.11669108E+01  0.40623669E+01  0.48125000E+00
  0.87189984E-01 -0.22721569E+00  0.41517767E+00  0.53019821E+00  0.50787932E+01  0.48125000E+00
 -0.67330003E-01  0.10937108E-01  0.47639124E+00  0.14221927E+00  0.29805589E+01  0.48125000E+00
  0.14113740E+00  0.44945314E+00  0.98354838E-01  0.13649725E+01  0.12665270E+01  0.48125000E+00
 -0.78629833E-02  0.95361892E-02 -0.48109126E+00  0.31159071E+01  0.22603235E+01  0.48125000E+00
 -0.44236317E-01  0.31141201E+00  0.36423518E+00  0.71231274E+00  0.17119030E+01  0.48125000E+00
 -0.34800154E+00 -0.21770789E+00  0.25119667E+00  0.10216408E+01  0.37006195E+01  0.48125000E+00
 -0.16323210E-01  0.22827920E+00 -0.42334823E+00  0.26459950E+01  0.16421803E+01  0.48125000E+00
 -0.43602548E+00 -0.10216113E+00  0.17620001E+00  0.11959496E+01  0.33717419E+01  0.48125000E+00
  0.88487953E-01 -0.26920655E+00  0.38897208E+00  0.62961602E+00  0.50299629E+01  0.48125000E+00
  0.14054418E+00 -0.43605216E+00  0.14733435E+00  0.12596509E+01  0.50241864E+01  0.48125000E+00
 -0.42213387E+00 -0.23082196E+00  0.11215187E-01  0.15474899E+01  0.36419742E+01  0.48125000E+00
 -0.30806933E-02  0.51356087E-01 -0.47849203E+00  0.30344822E+01  0.16307114E+01  0.48125000E+00
  0.42097450E+00  0.29057112E-03  0.23319937E+00  0.10649247E+01  0.69023438E-03  0.48125000E+00
 -0.13709400E+00 -0.46101178E+00  0.16581211E-01  0.15363350E+01  0.44233409E+01  0.48125000E+00
 -0.58466412E-03  0.17581328E-02  0.48124643E+00  0.38499808E-02  0.18918402E+01  0.48125000E+00
  0.15436126E+00  0.26809160E+00 -0.36864760E+00  0.24434245E+01  0.10483775E+01  0.48125000E+00
 -0.41925998E+00  0.35554047E-01  0.23357769E+00  0.10640258E+01  0.30569932E+01  0.48125000E+00
  0.35981203E+00  0.18514375E+00  0.26049694E+00  0.99882300E+00  0.47522518E+00  0.48125000E+00
 -0.17830800E+00 -0.26744819E+00  0.35816098E+00  0.73141415E+00  0.41243626E+01  0.48125000E+00
 -0.65057927E-01 -0.12196383E+00  0.46097055E+00  0.29133633E+00  0.42223643E+01  0.48125000E+00
 -0.43585860E+00 -0.17679916E+00  0.10183762E+00  0.13575737E+01  0.35269467E+01  0.48125000E+00
  0.13347412E+00  0.58469199E-03 -0.46236985E+00  0.28605563E+01  0.43805364E-02  0.48125000E+00
 -0.48039745E+00 -0.28073835E-01 -0.56315828E-02  0.15824986E+01  0.31999650E+01  0.48125000E+00
 -0.13902655E+00 -0.24402477E+00  0.39080058E+00  0.62313460E+00  0.41945295E+01  0.48125000E+00
  0.11689818E+00 -0.23030400E+00 -0.40607443E+00  0.25751048E+01  0.51820838E+01  0.48125000E+00
 -0.99304574E-01  0.31807235E+00  0.34723212E+00  0.76479936E+00  0.18734147E+01  0.48125000E+00
  0.40803784E+00  0.23314166E+00 -0.10369018E+00  0.17879593E+01  0.51910396E+00  0.48125000E+00
 -0.10829694E+00 -0.45211397E+00 -0.12436357E+00  0.18321804E+01  0.44772841E+01  0.48125000E+00
 -0.11339297E+00  0.40997672E+00 -0.22508374E+00  0.20574905E+01  0.18406345E+01  0.48125000E+00
 -0.11075015E+00  0.34297273E+00  0.31891327E+00  0.84640876E+00  0.18831389E+01  0.48125000E+00
  0.13450981E-01 -0.11274939E+00  0.46766249E+00  0.23819172E+00  0.48311276E+01  0.48125000E+00