 VARIABLES = "lfpx","lfpy","lfpz","theta","phi","radfp"
 ZONE T="Zone1" I=         746 , F=POINT
 
  0.47703322E+00 -0.59131265E-01 -0.23331523E-01  0.16192964E+01  0.61598581E+01  0.48125000E+00
 -0.19885867E+00  0.27232882E+00  0.34335667E+00  0.77636050E+00  0.22015145E+01  0.48125000E+00
 -0.45302932E+00  0.14980271E+00 -0.62650969E-01  0.17013507E+01  0.28222420E+01  0.48125000E+00
  0.10822063E+00 -0.13736304E+00 -0.44835394E+00  0.27697090E+01  0.53796736E+01  0.48125000E+00
 -0.38308777E+00  0.14095221E+00 -0.25490742E+00  0.21290169E+01  0.27890284E+01  0.48125000E+00
  0.31938707E+00 -0.35195816E+00 -0.75623508E-01  0.17285901E+01  0.54493090E+01  0.48125000E+00
 -0.11006067E+00  0.46539058E+00 -0.53849947E-01  0.16829271E+01  0.18030208E+01  0.48125000E+00
 -0.14963989E+00 -0.19512819E+00 -0.41368400E+00  0.26052888E+01  0.40581720E+01  0.48125000E+00
  0.10822770E+00 -0.46448136E+00 -0.64384748E-01  0.17049852E+01  0.49413120E+01  0.48125000E+00
  0.22893948E-01 -0.47317853E+00  0.84732003E-01  0.13938072E+01  0.47607346E+01  0.48125000E+00
  0.29138819E+00 -0.32841847E-01  0.38159651E+00  0.65519714E+00  0.61709507E+01  0.48125000E+00
  0.44240071E+00 -0.18502437E+00 -0.40609850E-01  0.16552809E+01  0.58870645E+01  0.48125000E+00
 -0.39344236E+00 -0.27706165E+00  0.64431224E-02  0.15574076E+01  0.37551311E+01  0.48125000E+00
 -0.20675297E+00 -0.34640293E+00  0.26241148E+00  0.99408444E+00  0.41742838E+01  0.48125000E+00
 -0.37941213E+00 -0.13831407E+00 -0.26175793E+00  0.21458890E+01  0.34911689E+01  0.48125000E+00
  0.42907430E+00 -0.19389343E+00 -0.99509509E-01  0.17790719E+01  0.58587626E+01  0.48125000E+00
  0.71363583E-01  0.42140645E+00  0.22119089E+00  0.10932319E+01  0.14030417E+01  0.48125000E+00
 -0.41926357E+00 -0.19397734E+00  0.13487923E+00  0.12867225E+01  0.35749263E+01  0.48125000E+00
  0.34981624E+00 -0.35772144E-01 -0.32855824E+00  0.23222729E+01 -0.10190559E+00  0.48125000E+00
 -0.64620950E-01 -0.38237750E+00 -0.28497919E+00  0.22045387E+01  0.45449731E+01  0.48125000E+00
 -0.46774786E+00 -0.30319784E-02  0.11315613E+00  0.13334444E+01  0.31480746E+01  0.48125000E+00
 -0.43846363E+00  0.10700798E+00 -0.16703443E+00  0.19252569E+01  0.29022198E+01  0.48125000E+00
 -0.43650623E+00  0.15743927E+00 -0.12758038E+00  0.18391061E+01  0.27954348E+01  0.48125000E+00
  0.11932920E-01 -0.46098558E+00 -0.13766432E+00  0.18609043E+01  0.47382689E+01  0.48125000E+00
 -0.15620365E+00  0.20852728E+00 -0.40462125E+00  0.25695029E+01  0.22137085E+01  0.48125000E+00
  0.16626696E+00  0.42668757E+00  0.14796817E+00  0.12582671E+01  0.11992275E+01  0.48125000E+00
 -0.36887242E+00  0.38198061E-01  0.30671748E+00  0.87976141E+00  0.30384069E+01  0.48125000E+00
 -0.32942024E+00 -0.72372817E-01 -0.34328712E+00  0.23650259E+01  0.33578544E+01  0.48125000E+00
 -0.20232857E+00 -0.21017932E+00  0.38273930E+00  0.65129002E+00  0.39460203E+01  0.48125000E+00
 -0.74349975E-02  0.38334112E+00  0.29085369E+00  0.92181983E+00  0.15901891E+01  0.48125000E+00
 -0.30816649E+00 -0.13974835E+00  0.34220663E+00  0.77976512E+00  0.35673395E+01  0.48125000E+00
 -0.34213604E+00 -0.76771253E-01  0.32962200E+00  0.81629030E+00  0.33623246E+01  0.48125000E+00
 -0.30691501E+00  0.20790453E+00  0.30688833E+00  0.87930061E+00  0.25461954E+01  0.48125000E+00
 -0.33310106E+00  0.25284532E+00 -0.23814804E+00  0.20884621E+01  0.24923152E+01  0.48125000E+00
  0.39188862E+00 -0.18336569E+00  0.21071758E+00  0.11175852E+01  0.58455437E+01  0.48125000E+00
  0.20808599E+00 -0.42812768E+00  0.70770540E-01  0.14232054E+01  0.51648041E+01  0.48125000E+00
 -0.20317448E+00 -0.28396018E+00 -0.33119225E+00  0.23297900E+01  0.40913336E+01  0.48125000E+00
 -0.98160358E-01  0.12118099E+00 -0.45528153E+00  0.28115840E+01  0.22516239E+01  0.48125000E+00
 -0.15199221E+00  0.15298409E+00 -0.43022761E+00  0.26769449E+01  0.23529422E+01  0.48125000E+00
 -0.15937003E+00  0.44450730E+00 -0.92822511E-01  0.17648907E+01  0.19150516E+01  0.48125000E+00
  0.11602102E+00 -0.42931864E+00 -0.18391898E+00  0.19629390E+01  0.49763287E+01  0.48125000E+00
 -0.34688160E+00 -0.94168382E-02 -0.33344571E+00  0.23362639E+01  0.31687331E+01  0.48125000E+00
  0.62515296E-02  0.34904281E+00 -0.33125760E+00  0.23299772E+01  0.15528877E+01  0.48125000E+00
 -0.20065638E+00  0.39674777E+00 -0.18420041E+00  0.19635719E+01  0.20390357E+01  0.48125000E+00
  0.35117025E+00  0.79803293E-01  0.31923730E+00  0.84550933E+00  0.22345459E+00  0.48125000E+00
 -0.10218264E-01 -0.29405712E+00  0.38082484E+00  0.65782426E+00  0.46776537E+01  0.48125000E+00
 -0.20466786E+00 -0.43532773E+00 -0.14226683E-01  0.16003626E+01  0.42729080E+01  0.48125000E+00
 -0.87469412E-01  0.18014285E+00 -0.43760624E+00  0.27124232E+01  0.20228220E+01  0.48125000E+00
 -0.21214885E+00  0.41796450E+00 -0.10908758E+00  0.17994593E+01  0.20404865E+01  0.48125000E+00
  0.55417934E-01  0.41682727E+00 -0.23406291E+00  0.20787204E+01  0.14386197E+01  0.48125000E+00
 -0.65013233E-01  0.46242000E+00  0.11637263E+00  0.13265622E+01  0.17104743E+01  0.48125000E+00
 -0.46773817E+00  0.65990885E-01  0.92020463E-01  0.13784002E+01  0.30014326E+01  0.48125000E+00
 -0.64487619E-01 -0.31613652E+00  0.35707227E+00  0.73479477E+00  0.45111631E+01  0.48125000E+00
  0.52233083E-02  0.84440121E-01 -0.47375536E+00  0.29648790E+01  0.15090169E+01  0.48125000E+00
 -0.30687990E-01  0.15915483E+00  0.45313304E+00  0.34351944E+00  0.17612771E+01  0.48125000E+00
 -0.36753084E+00  0.24008810E+00  0.19718100E+00  0.11486418E+01  0.25629388E+01  0.48125000E+00
  0.31247004E+00 -0.25207279E+00  0.26537397E+00  0.98672316E+00  0.56043661E+01  0.48125000E+00
  0.45146270E+00 -0.70289401E-01  0.15113700E+00  0.12513395E+01  0.61287327E+01  0.48125000E+00
 -0.32597368E+00  0.51081311E-01  0.35033331E+00  0.75544676E+00  0.29861530E+01  0.48125000E+00
 -0.38390898E+00  0.18267956E+00  0.22548533E+00  0.10831578E+01  0.26974585E+01  0.48125000E+00
 -0.32023068E+00  0.13325729E+00  0.33361110E+00  0.80485204E+00  0.27472597E+01  0.48125000E+00
  0.43961779E-01 -0.33228732E+00 -0.34533182E+00  0.23711071E+01  0.48439256E+01  0.48125000E+00
 -0.33908069E+00 -0.34091608E+00 -0.20051746E-01  0.16124744E+01  0.39296899E+01  0.48125000E+00
 -0.47725374E+00 -0.20339185E-01 -0.58452975E-01  0.16925577E+01  0.31841840E+01  0.48125000E+00
 -0.71200645E-01  0.43246169E+00  0.19876850E+00  0.11450227E+01  0.17339728E+01  0.48125000E+00
 -0.26384603E+00 -0.17197814E+00 -0.36388234E+00  0.24281589E+01  0.37192410E+01  0.48125000E+00
 -0.31097021E+00 -0.35788922E+00 -0.82549349E-01  0.17431799E+01  0.39970239E+01  0.48125000E+00
 -0.19779519E+00  0.42871475E+00  0.93178780E-01  0.13759475E+01  0.20030634E+01  0.48125000E+00
 -0.25767977E+00  0.92979832E-02 -0.40634499E+00  0.25761532E+01  0.31055248E+01  0.48125000E+00
  0.35149096E-01  0.44762190E+00  0.17320720E+00  0.12026238E+01  0.14924331E+01  0.48125000E+00
  0.46857514E+00 -0.10617075E+00  0.27688906E-01  0.15132291E+01  0.60603655E+01  0.48125000E+00
 -0.25228452E-01 -0.61602523E-01  0.47662377E+00  0.13876879E+00  0.43236890E+01  0.48125000E+00
  0.44545512E+00 -0.16007241E+00  0.86879934E-01  0.13892713E+01  0.59382090E+01  0.48125000E+00
 -0.28472755E+00  0.34504619E+00 -0.17741170E+00  0.19483502E+01  0.22607075E+01  0.48125000E+00
 -0.26317018E-01 -0.26198186E+00 -0.40283307E+00  0.25626758E+01  0.46122712E+01  0.48125000E+00
  0.12716341E+00  0.46323586E+00 -0.29044270E-01  0.16311848E+01  0.13028846E+01  0.48125000E+00
 -0.12246540E+00  0.20883279E+00  0.41592385E+00  0.52712411E+00  0.21011767E+01  0.48125000E+00
  0.25632361E+00 -0.26661277E+00 -0.30792434E+00  0.22650900E+01  0.54781139E+01  0.48125000E+00
  0.25154572E+00 -0.40952677E+00  0.24781894E-01  0.15192787E+01  0.52632098E+01  0.48125000E+00
 -0.26483448E+00  0.14083963E+00 -0.37633557E+00  0.24686581E+01  0.26528279E+01  0.48125000E+00
 -0.28681861E+00  0.26694524E+00  0.27942242E+00  0.95130877E+00  0.23920669E+01  0.48125000E+00
  0.51750801E-01  0.42674441E-01 -0.47655253E+00  0.30017577E+01  0.68957039E+00  0.48125000E+00
  0.18286114E-01  0.46582086E+00 -0.11949103E+00  0.18217140E+01  0.15315608E+01  0.48125000E+00
  0.39880822E+00  0.23565845E+00  0.13045559E+00  0.12962850E+01  0.53370643E+00  0.48125000E+00
 -0.43515350E+00 -0.10161692E+00  0.17865329E+00  0.11904656E+01  0.33710013E+01  0.48125000E+00
 -0.10829093E+00 -0.23998392E+00 -0.40284284E+00  0.25627129E+01  0.42885023E+01  0.48125000E+00
  0.10602775E+00 -0.41466962E+00  0.22001996E+00  0.10959696E+01  0.49627177E+01  0.48125000E+00
 -0.11184372E+00  0.53785352E-01 -0.46497277E+00  0.28807662E+01  0.26933436E+01  0.48125000E+00
  0.40027198E+00 -0.16341539E+00 -0.21137482E+00  0.20255270E+01  0.58955778E+01  0.48125000E+00
 -0.31884933E+00  0.27859250E+00  0.22874196E+00  0.10754823E+01  0.24234748E+01  0.48125000E+00
 -0.41897386E+00 -0.12385604E+00 -0.20179731E+00  0.20034915E+01  0.34290240E+01  0.48125000E+00
  0.76938373E-01 -0.47329240E+00  0.40943344E-01  0.14856163E+01  0.48735393E+01  0.48125000E+00
  0.99828937E-01  0.27428973E+00 -0.38262370E+00  0.24899065E+01  0.12217445E+01  0.48125000E+00
 -0.41453185E+00  0.24307205E+00  0.26093760E-01  0.15165489E+01  0.26112501E+01  0.48125000E+00
  0.14699017E+00 -0.12709698E+00  0.44027470E+00  0.41564391E+00  0.55702399E+01  0.48125000E+00
  0.10595801E+00 -0.68203131E-01 -0.46445968E+00  0.28766634E+01  0.57112653E+01  0.48125000E+00
  0.79517346E-01  0.72964624E-02  0.47457909E+00  0.16669593E+00  0.63746884E+01  0.48125000E+00
 -0.12225447E+00  0.44747333E+00  0.12815236E+00  0.13012537E+01  0.18374982E+01  0.48125000E+00
 -0.17472018E+00 -0.32005714E+00  0.31406663E+00  0.85977760E+00  0.42126966E+01  0.48125000E+00
  0.10950234E+00  0.82735594E-03 -0.46862577E+00  0.29120381E+01  0.75554568E-02  0.48125000E+00
 -0.44988470E+00 -0.33353143E-01  0.16760934E+00  0.12150616E+01  0.32155944E+01  0.48125000E+00
  0.10150380E+00 -0.23436440E+00  0.40788708E+00  0.55943035E+00  0.51211024E+01  0.48125000E+00
  0.51052121E-02 -0.43126950E+00 -0.21349969E+00  0.20304477E+01  0.47242261E+01  0.48125000E+00
 -0.34952242E+00 -0.11809722E+00 -0.30901244E+00  0.22680357E+01  0.34674311E+01  0.48125000E+00
  0.93384869E-01  0.12643277E+00 -0.45485776E+00  0.28088774E+01  0.93462290E+00  0.48125000E+00
 -0.11783593E+00  0.40031845E+00  0.23971106E+00  0.10493890E+01  0.18570667E+01  0.48125000E+00
  0.50091398E-01  0.26393143E+00  0.39929014E+00  0.59223741E+00  0.13832376E+01  0.48125000E+00
  0.46328148E+00 -0.95509903E-01  0.88598494E-01  0.13856394E+01  0.60798742E+01  0.48125000E+00
  0.13933983E-02  0.42465289E+00  0.22642779E+00  0.10809398E+01  0.15675151E+01  0.48125000E+00
 -0.13692103E+00  0.40409365E+00 -0.22262640E+00  0.20517223E+01  0.18974901E+01  0.48125000E+00
 -0.13047303E+00  0.32147641E+00 -0.33351353E+00  0.23364593E+01  0.19563405E+01  0.48125000E+00
  0.35086608E+00 -0.28705889E+00  0.16152941E+00  0.12285059E+01  0.55974786E+01  0.48125000E+00
  0.32539420E+00  0.16107592E+00 -0.31587138E+00  0.22867750E+01  0.45965391E+00  0.48125000E+00
 -0.23779055E+00  0.36751034E+00  0.19998342E+00  0.11422490E+01  0.21450815E+01  0.48125000E+00
  0.41224557E+00  0.86863228E-01 -0.23261542E+00  0.20752814E+01  0.20766970E+00  0.48125000E+00
 -0.29779210E+00  0.37541969E+00  0.44513891E-01  0.14781675E+01  0.22413922E+01  0.48125000E+00
  0.43529693E+00  0.16354714E+00  0.12397774E+00  0.13102421E+01  0.35939647E+00  0.48125000E+00
 -0.29718928E+00  0.36156822E+00  0.11202015E+00  0.13358723E+01  0.22587760E+01  0.48125000E+00
 -0.23924511E+00 -0.23309627E+00 -0.34645269E+00  0.23744570E+01  0.39139738E+01  0.48125000E+00
 -0.41862218E+00 -0.23081484E-01 -0.23627162E+00  0.20839808E+01  0.31966737E+01  0.48125000E+00
 -0.16770420E+00 -0.39044164E+00  0.22590306E+00  0.10821750E+01  0.43066924E+01  0.48125000E+00
  0.31648641E+00  0.26808412E-01  0.36155113E+00  0.72080439E+00  0.84504634E-01  0.48125000E+00
 -0.13531114E-01 -0.36057604E+00 -0.31843900E+00  0.22938687E+01  0.46748802E+01  0.48125000E+00
 -0.85022469E-01  0.25729862E+00  0.39770612E+00  0.59810819E+00  0.18899431E+01  0.48125000E+00
 -0.37350209E+00  0.20631186E+00 -0.22256048E+00  0.20515678E+01  0.26369306E+01  0.48125000E+00
 -0.13684293E+00 -0.42631018E+00  0.17645171E+00  0.11953875E+01  0.44017848E+01  0.48125000E+00
 -0.21632472E+00 -0.28880791E-01  0.42891850E+00  0.47068198E+00  0.32743145E+01  0.48125000E+00
  0.49329081E-01 -0.36525697E+00  0.30944393E+00  0.87238684E+00  0.48466298E+01  0.48125000E+00
  0.17259282E+00  0.34577275E+00  0.28680043E+00  0.93234947E+00  0.11078281E+01  0.48125000E+00
  0.27746752E+00  0.37629604E+00  0.11408167E+00  0.13314653E+01  0.93543080E+00  0.48125000E+00
  0.37176307E-01 -0.20842574E+00  0.43217843E+00  0.45551837E+00  0.48888999E+01  0.48125000E+00
  0.26783291E+00 -0.34371744E+00  0.20426799E+00  0.11324387E+01  0.53743327E+01  0.48125000E+00
 -0.43781439E-01 -0.47925011E+00 -0.20208794E-02  0.15749956E+01  0.46212878E+01  0.48125000E+00
  0.26816154E+00 -0.39069703E+00  0.83945126E-01  0.13954680E+01  0.53139065E+01  0.48125000E+00
  0.45074640E+00 -0.79306479E-01 -0.14879425E+00  0.18851300E+01  0.61090231E+01  0.48125000E+00
  0.43578283E+00 -0.33473248E-01 -0.20143095E+00  0.20026531E+01 -0.76661232E-01  0.48125000E+00
 -0.26334730E+00  0.76402979E-01 -0.39549001E+00  0.25353548E+01  0.28592222E+01  0.48125000E+00
 -0.28974903E+00 -0.22054018E+00 -0.31465710E+00  0.22834355E+01  0.37921866E+01  0.48125000E+00
  0.10169114E+00 -0.29071006E+00  0.36979472E+00  0.69445185E+00  0.50488880E+01  0.48125000E+00
  0.81627629E-01 -0.24494000E+00 -0.40613161E+00  0.25753262E+01  0.50340696E+01  0.48125000E+00
  0.54403050E-01 -0.44281429E+00 -0.18043663E+00  0.19551211E+01  0.48346339E+01  0.48125000E+00
 -0.28713224E+00 -0.10996002E+00 -0.37022349E+00  0.24485342E+01  0.35073232E+01  0.48125000E+00
 -0.28651291E+00 -0.20205353E+00  0.32967603E+00  0.81613621E+00  0.37558108E+01  0.48125000E+00
 -0.80192460E-01 -0.33884297E+00 -0.33219899E+00  0.23326773E+01  0.44799992E+01  0.48125000E+00
  0.47265300E+00  0.58104030E-01 -0.69459502E-01  0.17156336E+01  0.64055033E+01  0.48125000E+00
 -0.21279857E+00  0.11663238E+00 -0.41559020E+00  0.26130920E+01  0.26402184E+01  0.48125000E+00
  0.32948681E+00  0.14606504E+00  0.31891223E+00  0.84641164E+00  0.41727722E+00  0.48125000E+00
 -0.16228613E+00 -0.45099424E+00  0.43231624E-01  0.14808431E+01  0.43669743E+01  0.48125000E+00
  0.37660070E+00  0.28263887E+00 -0.99442169E-01  0.17789288E+01  0.64382112E+00  0.48125000E+00
 -0.10216340E+00 -0.40380195E+00  0.24105641E+00  0.10461621E+01  0.44645853E+01  0.48125000E+00
  0.34105538E+00 -0.32073666E-01  0.33801489E+00  0.79207670E+00  0.61894187E+01  0.48125000E+00
  0.99290119E-01  0.18179786E+00 -0.43438758E+00  0.26966226E+01  0.10709086E+01  0.48125000E+00
 -0.27489118E+00 -0.34548731E+00 -0.19150697E+00  0.19800629E+01  0.40402986E+01  0.48125000E+00
  0.45543230E-01 -0.43365115E+00  0.20365180E+00  0.11338523E+01  0.48170281E+01  0.48125000E+00
  0.46137472E+00  0.12472326E+00 -0.56382990E-01  0.16882255E+01  0.26401905E+00  0.48125000E+00
 -0.15247996E+00  0.36411277E+00  0.27526953E+00  0.96186811E+00  0.19673794E+01  0.48125000E+00
  0.13035553E+00  0.28467146E+00  0.36547388E+00  0.70836557E+00  0.11413792E+01  0.48125000E+00
  0.45191655E+00 -0.16441184E+00  0.18486374E-01  0.15323736E+01  0.59342608E+01  0.48125000E+00
  0.31963285E+00  0.29973730E+00 -0.19898230E+00  0.19970578E+01  0.75328697E+00  0.48125000E+00
  0.29675157E-01 -0.15742398E+00 -0.45380462E+00  0.28022409E+01  0.48987073E+01  0.48125000E+00
  0.36416337E+00  0.29598834E+00  0.10666540E+00  0.13472979E+01  0.68249120E+00  0.48125000E+00
 -0.35143108E+00 -0.23729934E+00 -0.22756709E+00  0.20633377E+01  0.37355053E+01  0.48125000E+00
  0.26350482E+00  0.36074354E+00  0.17897170E+00  0.11897529E+01  0.93992562E+00  0.48125000E+00
 -0.70131637E-02  0.41138541E+00 -0.24962857E+00  0.21161362E+01  0.15878423E+01  0.48125000E+00
 -0.45430250E+00 -0.15853623E+00  0.87784543E-02  0.15525544E+01  0.34773462E+01  0.48125000E+00
  0.29992475E-01  0.15919861E+00  0.45316423E+00  0.34332695E+00  0.13845824E+01  0.48125000E+00
 -0.15076398E-01  0.26929863E+00  0.39856306E+00  0.59493847E+00  0.16267219E+01  0.48125000E+00
  0.21396852E+00  0.68616046E-01  0.42557123E+00  0.48579538E+00  0.31032229E+00  0.48125000E+00
 -0.45069706E+00 -0.99970189E-01 -0.13593999E+00  0.18571671E+01  0.33598710E+01  0.48125000E+00
  0.21059728E+00 -0.30954732E+00 -0.30237527E+00  0.22501782E+01  0.53097978E+01  0.48125000E+00
 -0.24142383E+00 -0.23860684E+00  0.34114934E+00  0.78288482E+00  0.39211225E+01  0.48125000E+00
  0.44694112E-01 -0.32089404E+00  0.35585251E+00  0.73856739E+00  0.48507787E+01  0.48125000E+00
  0.35082966E+00  0.30396643E-01 -0.32801853E+00  0.23207392E+01  0.86426337E-01  0.48125000E+00
  0.27961515E+00  0.22454317E+00 -0.32093191E+00  0.23007988E+01  0.67659407E+00  0.48125000E+00
  0.13907697E+00  0.45184304E+00 -0.89983495E-01  0.17588820E+01  0.12721997E+01  0.48125000E+00
 -0.18109173E+00 -0.23910325E+00 -0.37634689E+00  0.24686959E+01  0.40641821E+01  0.48125000E+00
 -0.41410655E-01 -0.46804045E+00 -0.10404256E+00  0.17887092E+01  0.46241421E+01  0.48125000E+00
 -0.17765929E+00  0.44599543E+00 -0.33568122E-01  0.16406050E+01  0.19498737E+01  0.48125000E+00
  0.19663409E+00  0.42430507E+00 -0.11358612E+00  0.18090676E+01  0.11368334E+01  0.48125000E+00
 -0.11211233E-01 -0.10584783E+00 -0.46933155E+00  0.29185747E+01  0.46068640E+01  0.48125000E+00
  0.56718173E-01 -0.47743056E+00 -0.21087229E-01  0.16146280E+01  0.48306336E+01  0.48125000E+00
 -0.38769497E+00 -0.72483115E-01  0.27575418E+00  0.96063986E+00  0.33264181E+01  0.48125000E+00
 -0.87196963E-01 -0.20261773E+00  0.42771989E+00  0.47614474E+00  0.43059938E+01  0.48125000E+00
 -0.22047289E+00 -0.40518179E+00 -0.13718961E+00  0.18598751E+01  0.42140611E+01  0.48125000E+00
  0.48328153E-01  0.30857985E+00 -0.36612078E+00  0.24352957E+01  0.14154436E+01  0.48125000E+00
 -0.27503719E-01 -0.46290688E+00  0.12869472E+00  0.13000843E+01  0.46530435E+01  0.48125000E+00
 -0.47469097E+00 -0.46476639E-01  0.64109015E-01  0.14371856E+01  0.32391908E+01  0.48125000E+00
 -0.36995978E+00  0.25246582E+00 -0.17604639E+00  0.19453000E+01  0.25427670E+01  0.48125000E+00
 -0.14799064E+00 -0.45193642E-01  0.45569493E+00  0.32734746E+00  0.34379795E+01  0.48125000E+00
  0.43509581E+00  0.11342558E+00  0.17154544E+00  0.12063222E+01  0.25501524E+00  0.48125000E+00
 -0.34281038E+00  0.31620528E+00  0.11873007E+00  0.13215106E+01  0.23965435E+01  0.48125000E+00
  0.30833754E+00 -0.19782309E+00 -0.31208260E+00  0.22763867E+01  0.57127523E+01  0.48125000E+00
 -0.28280628E+00  0.13032354E-01  0.38916876E+00  0.62892161E+00  0.30955430E+01  0.48125000E+00
  0.16920705E+00 -0.35451819E+00 -0.27800610E+00  0.21866738E+01  0.51577019E+01  0.48125000E+00
  0.40761969E+00 -0.20270752E+00 -0.15606861E+00  0.19010663E+01  0.58217035E+01  0.48125000E+00
 -0.72647102E-01 -0.11382995E+00 -0.46191634E+00  0.28571783E+01  0.41443486E+01  0.48125000E+00
  0.43757724E+00  0.19904482E+00  0.22558440E-01  0.15239045E+01  0.42690412E+00  0.48125000E+00
  0.33070790E-01 -0.28084880E+00 -0.38939933E+00  0.25134859E+01  0.48296022E+01  0.48125000E+00
  0.23156078E+00 -0.15551087E+00  0.39217029E+00  0.61824090E+00  0.56917910E+01  0.48125000E+00
 -0.20707111E+00  0.23340291E+00 -0.36639623E+00  0.24361781E+01  0.22964850E+01  0.48125000E+00
  0.20207106E+00 -0.20881756E+00  0.38361970E+00  0.64826624E+00  0.54813694E+01  0.48125000E+00
 -0.15094797E+00  0.26663861E+00 -0.37110662E+00  0.24514114E+01  0.20859272E+01  0.48125000E+00
 -0.55495149E-01 -0.41807088E+00 -0.23181586E+00  0.20733845E+01  0.45804195E+01  0.48125000E+00
  0.26508754E+00 -0.25841540E+00  0.30749250E+00  0.87766972E+00  0.55105316E+01  0.48125000E+00
  0.30968945E+00 -0.16830493E-01 -0.36798199E+00  0.24412756E+01 -0.54292948E-01  0.48125000E+00
  0.69705042E-01  0.23300311E+00 -0.41527379E+00  0.26117895E+01  0.12801110E+01  0.48125000E+00
  0.24533983E+00  0.40931742E+00  0.62202738E-01  0.14411813E+01  0.10308272E+01  0.48125000E+00
  0.76702816E-01 -0.19002428E+00 -0.43544117E+00  0.27017363E+01  0.50960357E+01  0.48125000E+00
 -0.28975208E+00  0.94982694E-01  0.37232188E+00  0.68620542E+00  0.28248242E+01  0.48125000E+00
 -0.34098041E+00 -0.23087886E+00  0.24905596E+00  0.10268475E+01  0.37367856E+01  0.48125000E+00
  0.26596644E+00 -0.39167535E+00 -0.86335589E-01  0.17511715E+01  0.53089145E+01  0.48125000E+00
  0.21767453E+00 -0.24954345E-01 -0.42848179E+00  0.26689136E+01  0.61690430E+01  0.48125000E+00
  0.26290837E+00 -0.92495929E-01  0.39233309E+00  0.61765700E+00  0.59448917E+01  0.48125000E+00
 -0.75455676E-01 -0.43452530E+00  0.19260261E+00  0.11590468E+01  0.45404527E+01  0.48125000E+00
 -0.35198756E+00  0.53742590E-01 -0.32375616E+00  0.23087023E+01  0.29900796E+01  0.48125000E+00
 -0.30748220E+00 -0.36886757E+00  0.31511489E-01  0.15052710E+01  0.40175026E+01  0.48125000E+00
  0.21611105E+00 -0.30871290E+00  0.29932243E+00  0.89954197E+00  0.53231411E+01  0.48125000E+00
 -0.25555624E+00 -0.16494434E+00  0.37294227E+00  0.68416829E+00  0.37147504E+01  0.48125000E+00
  0.42968694E-01 -0.40531483E+00  0.25588111E+00  0.10101886E+01  0.48180076E+01  0.48125000E+00
 -0.34975265E+00 -0.31446667E+00 -0.10190858E+00  0.17841698E+01  0.38739167E+01  0.48125000E+00
 -0.47271542E+00 -0.90128083E-01 -0.43158438E-02  0.15797644E+01  0.33299919E+01  0.48125000E+00
 -0.91111163E-01  0.16476572E+00  0.44289115E+00  0.40196679E+00  0.20759200E+01  0.48125000E+00
  0.21978455E+00  0.42810929E+00  0.43303489E-02  0.15617981E+01  0.10964988E+01  0.48125000E+00
 -0.13763632E+00  0.71502221E-01  0.45557133E+00  0.32814528E+00  0.26624662E+01  0.48125000E+00
  0.43243433E+00 -0.14167268E+00 -0.15662365E+00  0.19022858E+01  0.59665886E+01  0.48125000E+00
  0.21762883E+00 -0.35037903E+00  0.24793909E+00  0.10295576E+01  0.52681962E+01  0.48125000E+00
  0.30628953E+00 -0.24514755E+00 -0.27873099E+00  0.21885203E+01  0.56082136E+01  0.48125000E+00
  0.29459368E-01 -0.21625032E-01  0.47986047E+00 -0.76009676E-01  0.25083695E+01  0.48125000E+00
 -0.20370908E+00 -0.14958965E+00  0.40954500E+00  0.55290483E+00  0.37749892E+01  0.48125000E+00
 -0.28906889E+00 -0.38363207E+00 -0.29447773E-01  0.16320248E+01  0.40666481E+01  0.48125000E+00
  0.25253512E+00  0.56807564E-02  0.40962825E+00  0.55257537E+00  0.63056764E+01  0.48125000E+00
  0.23135528E+00 -0.16062286E+00 -0.39022634E+00  0.25164163E+01  0.56763158E+01  0.48125000E+00
  0.23304852E+00  0.36544527E+00 -0.20914039E+00  0.20203654E+01  0.10031086E+01  0.48125000E+00
  0.38320867E+00 -0.29082478E+00 -0.13176694E-01  0.15981799E+01  0.56339997E+01  0.48125000E+00
 -0.11205442E+00 -0.46079222E+00  0.81950612E-01  0.13996754E+01  0.44738415E+01  0.48125000E+00
 -0.34269877E+00 -0.19271772E+00 -0.27752296E+00  0.21854444E+01  0.36538705E+01  0.48125000E+00
 -0.42314262E+00 -0.54125987E-01  0.22276054E+00  0.10895559E+01  0.32688161E+01  0.48125000E+00
 -0.44751541E+00  0.10990653E+00  0.13875185E+00  0.12783291E+01  0.29007663E+01  0.48125000E+00
  0.48069492E+00  0.39245220E-02 -0.22771828E-01  0.16181321E+01  0.81640864E-02  0.48125000E+00
  0.26674476E+00 -0.49526363E-01 -0.39748702E+00  0.25426764E+01  0.60996063E+01  0.48125000E+00
 -0.60806744E-01  0.47727425E+00 -0.10648776E-01  0.15929255E+01  0.16975178E+01  0.48125000E+00
  0.18966579E+00  0.40347959E+00 -0.18119788E+00  0.19568280E+01  0.11313738E+01  0.48125000E+00
  0.17975666E-01  0.44510907E+00 -0.18208886E+00  0.19588272E+01  0.15304334E+01  0.48125000E+00
  0.26785305E+00 -0.10836736E+00 -0.38485428E+00  0.24975871E+01  0.58987389E+01  0.48125000E+00
  0.47582270E+00  0.71416827E-01 -0.96934079E-02  0.15909398E+01  0.14897920E+00  0.48125000E+00
 -0.26166256E+00 -0.31121345E+00  0.25744991E+00  0.10063349E+01  0.40132711E+01  0.48125000E+00
 -0.50203173E-01  0.47209299E+00 -0.78799813E-01  0.17352768E+01  0.16767399E+01  0.48125000E+00
  0.18792700E-01  0.26190542E+00 -0.40330379E+00  0.25644660E+01  0.14991653E+01  0.48125000E+00
 -0.44762903E+00 -0.54978577E-02 -0.17663405E+00  0.19466124E+01  0.31538742E+01  0.48125000E+00
  0.46118559E+00  0.13748879E+00  0.24987867E-02  0.15656040E+01  0.28973140E+00  0.48125000E+00
 -0.27623955E-02 -0.45568699E-01 -0.47907977E+00  0.30465878E+01  0.46518426E+01  0.48125000E+00
  0.41696254E+00  0.17815047E-01 -0.23963812E+00  0.20920288E+01  0.42699803E-01  0.48125000E+00
 -0.46520085E+00 -0.10867350E+00  0.58136085E-01  0.14496983E+01  0.33710827E+01  0.48125000E+00
  0.40731979E+00 -0.23352886E+00  0.10562395E+00  0.13495166E+01  0.57626066E+01  0.48125000E+00
  0.24541596E+00  0.20728872E+00  0.35833498E+00  0.73087267E+00  0.70137546E+00  0.48125000E+00
  0.35543079E+00 -0.32145939E+00  0.43981535E-01  0.14792784E+01  0.55479325E+01  0.48125000E+00
 -0.36054487E+00  0.98570342E-01  0.30313833E+00  0.88937468E+00  0.28747213E+01  0.48125000E+00
  0.47747573E+00 -0.43744510E-01  0.41290525E-01  0.14848922E+01  0.61918242E+01  0.48125000E+00
  0.33606679E+00 -0.14399317E+00  0.31293234E+00  0.86288417E+00  0.58783827E+01  0.48125000E+00
 -0.18508677E+00  0.41741145E+00  0.15202674E+00  0.12493915E+01  0.19881612E+01  0.48125000E+00
  0.26595772E+00 -0.37460364E+00  0.14331842E+00  0.12684043E+01  0.53297756E+01  0.48125000E+00
  0.41973987E+00  0.19754573E-03  0.23541446E+00  0.10596551E+01  0.47063845E-03  0.48125000E+00
  0.26385683E+00 -0.35059083E+00 -0.19765427E+00  0.19940291E+01  0.53575560E+01  0.48125000E+00
  0.22599105E+00 -0.49324913E-01  0.42201500E+00  0.50139214E+00  0.60682948E+01  0.48125000E+00
 -0.27167230E+00  0.38795664E+00 -0.85354360E-01  0.17490993E+01  0.21816999E+01  0.48125000E+00
 -0.38348681E+00  0.28136676E+00  0.73295141E-01  0.14178997E+01  0.25086012E+01  0.48125000E+00
  0.59996385E-01 -0.68312186E-01  0.47258379E+00 -0.19006320E+00  0.22914741E+01  0.48125000E+00
  0.36193157E+00 -0.84916711E-01  0.30560801E+00  0.88274946E+00  0.60527326E+01  0.48125000E+00
  0.68316802E-01 -0.41293658E+00 -0.23752423E+00  0.20869710E+01  0.48763453E+01  0.48125000E+00
 -0.45820237E-01 -0.47414813E+00  0.68451602E-01  0.14280752E+01  0.46160512E+01  0.48125000E+00
 -0.38660518E+00 -0.18300061E+00 -0.22056466E+00  0.20468961E+01  0.35836961E+01  0.48125000E+00
 -0.38928284E+00  0.72104464E-02 -0.28285764E+00  0.21990789E+01  0.31230724E+01  0.48125000E+00
 -0.10463254E+00 -0.43215185E+00 -0.18411512E+00  0.19633801E+01  0.44748406E+01  0.48125000E+00
 -0.16013001E+00  0.90848512E-01 -0.44464198E+00  0.27490291E+01  0.26255325E+01  0.48125000E+00
  0.17198388E+00  0.37926698E+00 -0.24120461E+00  0.20957864E+01  0.11450656E+01  0.48125000E+00
  0.38088423E+00  0.17617105E+00  0.23556852E+00  0.10592880E+01  0.43322633E+00  0.48125000E+00
 -0.31829025E+00 -0.32661237E+00  0.15367901E+00  0.12457708E+01  0.39398946E+01  0.48125000E+00
  0.10663292E+00 -0.33844867E+00  0.32508995E+00  0.82913802E+00  0.50176078E+01  0.48125000E+00
 -0.18169665E+00  0.12957285E-01  0.44544360E+00  0.38818631E+00  0.30704004E+01  0.48125000E+00
  0.70961955E-01  0.46332446E+00  0.10907064E+00  0.13421695E+01  0.14188191E+01  0.48125000E+00
 -0.53536542E-01  0.77785009E-01 -0.47189500E+00  0.29440970E+01  0.21736016E+01  0.48125000E+00
 -0.52470367E-01  0.40544322E+00  0.25389804E+00  0.10150466E+01  0.16994958E+01  0.48125000E+00
 -0.38008987E+00 -0.22101746E+00  0.19566435E+00  0.11520939E+01  0.36682887E+01  0.48125000E+00
 -0.68275748E-01  0.34054953E+00 -0.33311560E+00  0.23353130E+01  0.17686601E+01  0.48125000E+00
 -0.46009172E+00 -0.74755073E-01  0.11970317E+00  0.13194235E+01  0.33026637E+01  0.48125000E+00
  0.10524288E+00 -0.38119332E+00  0.27425746E+00  0.96442966E+00  0.49817664E+01  0.48125000E+00
  0.15554155E+00 -0.44018071E+00  0.11683036E+00  0.13255819E+01  0.50520525E+01  0.48125000E+00
 -0.42724842E+00 -0.22121154E+00  0.11216078E-01  0.15474881E+01  0.36193460E+01  0.48125000E+00
 -0.27948116E-01  0.20690414E+00 -0.43360252E+00  0.26928476E+01  0.17050613E+01  0.48125000E+00
  0.45021212E+00 -0.71469374E-02  0.16988093E+00  0.12100215E+01 -0.15873267E-01  0.48125000E+00
 -0.98112197E-01 -0.47065000E+00  0.21543783E-01  0.15260151E+01  0.45068712E+01  0.48125000E+00
 -0.61990619E-01  0.47935529E-01  0.47482724E+00  0.16355904E+00  0.24833639E+01  0.48125000E+00
  0.21353770E+00  0.33852196E+00 -0.26721919E+00  0.21594727E+01  0.10080412E+01  0.48125000E+00
 -0.45432152E+00  0.45110663E-01  0.15217931E+00  0.12490574E+01  0.30426247E+01  0.48125000E+00
  0.41169452E+00  0.17407093E+00  0.17834935E+00  0.11911456E+01  0.40001912E+00  0.48125000E+00
 -0.23121211E+00 -0.29052701E+00  0.30616430E+00  0.88125215E+00  0.40401917E+01  0.48125000E+00
 -0.15030832E+00 -0.18375826E+00  0.41861901E+00  0.51588259E+00  0.40267878E+01  0.48125000E+00
 -0.44554140E+00 -0.16816129E+00  0.69398879E-01  0.14260863E+01  0.35024932E+01  0.48125000E+00
  0.26677168E+00  0.19336474E-01 -0.40007566E+00  0.25522857E+01  0.72356694E-01  0.48125000E+00
 -0.47980850E+00  0.31850897E-01 -0.19258511E-01  0.16108247E+01  0.30753074E+01  0.48125000E+00
 -0.18461246E+00 -0.26801642E+00  0.35452362E+00  0.74265982E+00  0.41092124E+01  0.48125000E+00
  0.11042362E+00 -0.38152315E+00 -0.27175039E+00  0.21708371E+01  0.49941190E+01  0.48125000E+00
 -0.21136018E+00  0.34846137E+00  0.25593576E+00  0.10100545E+01  0.21160201E+01  0.48125000E+00
  0.43748416E+00  0.17657694E+00 -0.95025038E-01  0.17695571E+01  0.38362236E+00  0.48125000E+00
 -0.82986813E-01 -0.47104963E+00 -0.53169482E-01  0.16815044E+01  0.45380042E+01  0.48125000E+00
 -0.15719697E+00  0.42738489E+00 -0.15566898E+00  0.19001886E+01  0.19232497E+01  0.48125000E+00
 -0.18045916E+00  0.39198349E+00  0.21303755E+00  0.11122161E+01  0.20022440E+01  0.48125000E+00
  0.45321828E-01 -0.26609523E+00  0.39842292E+00  0.59545786E+00  0.48810919E+01  0.48125000E+00