 VARIABLES = "x","y","z","r1","r2","r3","r4"
 ZONE T="Zone1" I=          24  J=          24  K=          24 , F=POINT
 
 -0.68750000E+00 -0.68750000E+00 -0.68750000E+00  0.23815699E+01  0.27217941E+01  0.31754265E+01
  0.38105118E+01
 -0.62500000E+00 -0.68750000E+00 -0.68750000E+00  0.23116553E+01  0.26418917E+01  0.30822070E+01
  0.36986484E+01
 -0.56250000E+00 -0.68750000E+00 -0.68750000E+00  0.22465251E+01  0.25674573E+01  0.29953668E+01
  0.35944402E+01
 -0.50000000E+00 -0.68750000E+00 -0.68750000E+00  0.21866070E+01  0.24989794E+01  0.29154759E+01
  0.34985711E+01
 -0.43750000E+00 -0.68750000E+00 -0.68750000E+00  0.21323403E+01  0.24369603E+01  0.28431204E+01
  0.34117444E+01
 -0.37500000E+00 -0.68750000E+00 -0.68750000E+00  0.20841665E+01  0.23819046E+01  0.27788887E+01
  0.33346664E+01
 -0.31250000E+00 -0.68750000E+00 -0.68750000E+00  0.20425168E+01  0.23343049E+01  0.27233558E+01
  0.32680269E+01
 -0.25000000E+00 -0.68750000E+00 -0.68750000E+00  0.20077973E+01  0.22946255E+01  0.26770631E+01
  0.32124757E+01
 -0.18750000E+00 -0.68750000E+00 -0.68750000E+00  0.19803724E+01  0.22632828E+01  0.26404966E+01
  0.31685959E+01
 -0.12500000E+00 -0.68750000E+00 -0.68750000E+00  0.19605484E+01  0.22406267E+01  0.26140645E+01
  0.31368774E+01
 -0.62500000E-01 -0.68750000E+00 -0.68750000E+00  0.19485572E+01  0.22269225E+01  0.25980762E+01
  0.31176915E+01
  0.00000000E+00 -0.68750000E+00 -0.68750000E+00  0.19445436E+01  0.22223356E+01  0.25927249E+01
  0.31112698E+01
  0.62500000E-01 -0.68750000E+00 -0.68750000E+00  0.19485572E+01  0.22269225E+01  0.25980762E+01
  0.31176915E+01
  0.12500000E+00 -0.68750000E+00 -0.68750000E+00  0.19605484E+01  0.22406267E+01  0.26140645E+01
  0.31368774E+01
  0.18750000E+00 -0.68750000E+00 -0.68750000E+00  0.19803724E+01  0.22632828E+01  0.26404966E+01
  0.31685959E+01
  0.25000000E+00 -0.68750000E+00 -0.68750000E+00  0.20077973E+01  0.22946255E+01  0.26770631E+01
  0.32124757E+01
  0.31250000E+00 -0.68750000E+00 -0.68750000E+00  0.20425168E+01  0.23343049E+01  0.27233558E+01
  0.32680269E+01
  0.37500000E+00 -0.68750000E+00 -0.68750000E+00  0.20841665E+01  0.23819046E+01  0.27788887E+01
  0.33346664E+01
  0.43750000E+00 -0.68750000E+00 -0.68750000E+00  0.21323403E+01  0.24369603E+01  0.28431204E+01
  0.34117444E+01
  0.50000000E+00 -0.68750000E+00 -0.68750000E+00  0.21866070E+01  0.24989794E+01  0.29154759E+01
  0.34985711E+01
  0.56250000E+00 -0.68750000E+00 -0.68750000E+00  0.22465251E+01  0.25674573E+01  0.29953668E+01
  0.35944402E+01
  0.62500000E+00 -0.68750000E+00 -0.68750000E+00  0.23116553E+01  0.26418917E+01  0.30822070E+01
  0.36986484E+01
  0.68750000E+00 -0.68750000E+00 -0.68750000E+00  0.23815699E+01  0.27217941E+01  0.31754265E+01
  0.38105118E+01
  0.75000000E+00 -0.68750000E+00 -0.68750000E+00  0.24558603E+01  0.28066975E+01  0.32744805E+01
  0.39293765E+01
 -0.68750000E+00 -0.62500000E+00 -0.68750000E+00  0.23116553E+01  0.26418917E+01  0.30822070E+01
  0.36986484E+01
 -0.62500000E+00 -0.62500000E+00 -0.68750000E+00  0.22395591E+01  0.25594961E+01  0.29860788E+01
  0.35832946E+01
 -0.56250000E+00 -0.62500000E+00 -0.68750000E+00  0.21722684E+01  0.24825925E+01  0.28963579E+01
  0.34756294E+01
 -0.50000000E+00 -0.62500000E+00 -0.68750000E+00  0.21102429E+01  0.24117061E+01  0.28136572E+01
  0.33763886E+01
 -0.43750000E+00 -0.62500000E+00 -0.68750000E+00  0.20539596E+01  0.23473824E+01  0.27386128E+01
  0.32863353E+01
 -0.37500000E+00 -0.62500000E+00 -0.68750000E+00  0.20039024E+01  0.22901742E+01  0.26718699E+01
  0.32062439E+01
 -0.31250000E+00 -0.62500000E+00 -0.68750000E+00  0.19605484E+01  0.22406267E+01  0.26140645E+01
  0.31368774E+01
 -0.25000000E+00 -0.62500000E+00 -0.68750000E+00  0.19243505E+01  0.21992578E+01  0.25658007E+01
  0.30789609E+01
 -0.18750000E+00 -0.62500000E+00 -0.68750000E+00  0.18957189E+01  0.21665358E+01  0.25276251E+01
  0.30331502E+01
 -0.12500000E+00 -0.62500000E+00 -0.68750000E+00  0.18750000E+01  0.21428571E+01  0.25000000E+01
  0.30000000E+01
 -0.62500000E-01 -0.62500000E+00 -0.68750000E+00  0.18624581E+01  0.21285235E+01  0.24832774E+01
  0.29799329E+01
  0.00000000E+00 -0.62500000E+00 -0.68750000E+00  0.18582586E+01  0.21237241E+01  0.24776781E+01
  0.29732137E+01
  0.62500000E-01 -0.62500000E+00 -0.68750000E+00  0.18624581E+01  0.21285235E+01  0.24832774E+01
  0.29799329E+01
  0.12500000E+00 -0.62500000E+00 -0.68750000E+00  0.18750000E+01  0.21428571E+01  0.25000000E+01
  0.30000000E+01
  0.18750000E+00 -0.62500000E+00 -0.68750000E+00  0.18957189E+01  0.21665358E+01  0.25276251E+01
  0.30331502E+01
  0.25000000E+00 -0.62500000E+00 -0.68750000E+00  0.19243505E+01  0.21992578E+01  0.25658007E+01
  0.30789609E+01
  0.31250000E+00 -0.62500000E+00 -0.68750000E+00  0.19605484E+01  0.22406267E+01  0.26140645E+01
  0.31368774E+01
  0.37500000E+00 -0.62500000E+00 -0.68750000E+00  0.20039024E+01  0.22901742E+01  0.26718699E+01
  0.32062439E+01
  0.43750000E+00 -0.62500000E+00 -0.68750000E+00  0.20539596E+01  0.23473824E+01  0.27386128E+01
  0.32863353E+01
  0.50000000E+00 -0.62500000E+00 -0.68750000E+00  0.21102429E+01  0.24117061E+01  0.28136572E+01
  0.33763886E+01
  0.56250000E+00 -0.62500000E+00 -0.68750000E+00  0.21722684E+01  0.24825925E+01  0.28963579E+01
  0.34756294E+01
  0.62500000E+00 -0.62500000E+00 -0.68750000E+00  0.22395591E+01  0.25594961E+01  0.29860788E+01
  0.35832946E+01
  0.68750000E+00 -0.62500000E+00 -0.68750000E+00  0.23116553E+01  0.26418917E+01  0.30822070E+01
  0.36986484E+01
  0.75000000E+00 -0.62500000E+00 -0.68750000E+00  0.23881216E+01  0.27292819E+01  0.31841622E+01
  0.38209946E+01
 -0.68750000E+00 -0.56250000E+00 -0.68750000E+00  0.22465251E+01  0.25674573E+01  0.29953668E+01
  0.35944402E+01
 -0.62500000E+00 -0.56250000E+00 -0.68750000E+00  0.21722684E+01  0.24825925E+01  0.28963579E+01
  0.34756294E+01
 -0.56250000E+00 -0.56250000E+00 -0.68750000E+00  0.21028255E+01  0.24032291E+01  0.28037673E+01
  0.33645208E+01
 -0.50000000E+00 -0.56250000E+00 -0.68750000E+00  0.20386883E+01  0.23299295E+01  0.27182511E+01
  0.32619013E+01
 -0.43750000E+00 -0.56250000E+00 -0.68750000E+00  0.19803724E+01  0.22632828E+01  0.26404966E+01
  0.31685959E+01
 -0.37500000E+00 -0.56250000E+00 -0.68750000E+00  0.19284061E+01  0.22038927E+01  0.25712081E+01
  0.30854497E+01
 -0.31250000E+00 -0.56250000E+00 -0.68750000E+00  0.18833149E+01  0.21523599E+01  0.25110865E+01
  0.30133038E+01
 -0.25000000E+00 -0.56250000E+00 -0.68750000E+00  0.18456029E+01  0.21092604E+01  0.24608038E+01
  0.29529646E+01
 -0.18750000E+00 -0.56250000E+00 -0.68750000E+00  0.18157299E+01  0.20751199E+01  0.24209732E+01
  0.29051678E+01
 -0.12500000E+00 -0.56250000E+00 -0.68750000E+00  0.17940875E+01  0.20503857E+01  0.23921167E+01
  0.28705400E+01
 -0.62500000E-01 -0.56250000E+00 -0.68750000E+00  0.17809759E+01  0.20354010E+01  0.23746345E+01
  0.28495614E+01
  0.00000000E+00 -0.56250000E+00 -0.68750000E+00  0.17765838E+01  0.20303815E+01  0.23687784E+01
  0.28425341E+01
  0.62500000E-01 -0.56250000E+00 -0.68750000E+00  0.17809759E+01  0.20354010E+01  0.23746345E+01
  0.28495614E+01
  0.12500000E+00 -0.56250000E+00 -0.68750000E+00  0.17940875E+01  0.20503857E+01  0.23921167E+01
  0.28705400E+01
  0.18750000E+00 -0.56250000E+00 -0.68750000E+00  0.18157299E+01  0.20751199E+01  0.24209732E+01
  0.29051678E+01
  0.25000000E+00 -0.56250000E+00 -0.68750000E+00  0.18456029E+01  0.21092604E+01  0.24608038E+01
  0.29529646E+01
  0.31250000E+00 -0.56250000E+00 -0.68750000E+00  0.18833149E+01  0.21523599E+01  0.25110865E+01
  0.30133038E+01
  0.37500000E+00 -0.56250000E+00 -0.68750000E+00  0.19284061E+01  0.22038927E+01  0.25712081E+01
  0.30854497E+01
  0.43750000E+00 -0.56250000E+00 -0.68750000E+00  0.19803724E+01  0.22632828E+01  0.26404966E+01
  0.31685959E+01
  0.50000000E+00 -0.56250000E+00 -0.68750000E+00  0.20386883E+01  0.23299295E+01  0.27182511E+01
  0.32619013E+01
  0.56250000E+00 -0.56250000E+00 -0.68750000E+00  0.21028255E+01  0.24032291E+01  0.28037673E+01
  0.33645208E+01
  0.62500000E+00 -0.56250000E+00 -0.68750000E+00  0.21722684E+01  0.24825925E+01  0.28963579E+01
  0.34756294E+01
  0.68750000E+00 -0.56250000E+00 -0.68750000E+00  0.22465251E+01  0.25674573E+01  0.29953668E+01
  0.35944402E+01
  0.75000000E+00 -0.56250000E+00 -0.68750000E+00  0.23251344E+01  0.26572965E+01  0.31001792E+01
  0.37202150E+01
 -0.68750000E+00 -0.50000000E+00 -0.68750000E+00  0.21866070E+01  0.24989794E+01  0.29154759E+01
  0.34985711E+01
 -0.62500000E+00 -0.50000000E+00 -0.68750000E+00  0.21102429E+01  0.24117061E+01  0.28136572E+01
  0.33763886E+01
 -0.56250000E+00 -0.50000000E+00 -0.68750000E+00  0.20386883E+01  0.23299295E+01  0.27182511E+01
  0.32619013E+01
 -0.50000000E+00 -0.50000000E+00 -0.68750000E+00  0.19724667E+01  0.22542477E+01  0.26299556E+01
  0.31559468E+01
 -0.43750000E+00 -0.50000000E+00 -0.68750000E+00  0.19121323E+01  0.21852941E+01  0.25495098E+01
  0.30594117E+01
 -0.37500000E+00 -0.50000000E+00 -0.68750000E+00  0.18582586E+01  0.21237241E+01  0.24776781E+01
  0.29732137E+01
 -0.31250000E+00 -0.50000000E+00 -0.68750000E+00  0.18114221E+01  0.20701967E+01  0.24152295E+01
  0.28982753E+01
 -0.25000000E+00 -0.50000000E+00 -0.68750000E+00  0.17721809E+01  0.20253496E+01  0.23629078E+01
  0.28354894E+01
 -0.18750000E+00 -0.50000000E+00 -0.68750000E+00  0.17410485E+01  0.19897698E+01  0.23213980E+01
  0.27856777E+01
 -0.12500000E+00 -0.50000000E+00 -0.68750000E+00  0.17184659E+01  0.19639610E+01  0.22912878E+01
  0.27495454E+01
 -0.62500000E-01 -0.50000000E+00 -0.68750000E+00  0.17047727E+01  0.19483117E+01  0.22730303E+01
  0.27276363E+01
  0.00000000E+00 -0.50000000E+00 -0.68750000E+00  0.17001838E+01  0.19430672E+01  0.22669118E+01
  0.27202941E+01
  0.62500000E-01 -0.50000000E+00 -0.68750000E+00  0.17047727E+01  0.19483117E+01  0.22730303E+01
  0.27276363E+01
  0.12500000E+00 -0.50000000E+00 -0.68750000E+00  0.17184659E+01  0.19639610E+01  0.22912878E+01
  0.27495454E+01
  0.18750000E+00 -0.50000000E+00 -0.68750000E+00  0.17410485E+01  0.19897698E+01  0.23213980E+01
  0.27856777E+01
  0.25000000E+00 -0.50000000E+00 -0.68750000E+00  0.17721809E+01  0.20253496E+01  0.23629078E+01
  0.28354894E+01
  0.31250000E+00 -0.50000000E+00 -0.68750000E+00  0.18114221E+01  0.20701967E+01  0.24152295E+01
  0.28982753E+01
  0.37500000E+00 -0.50000000E+00 -0.68750000E+00  0.18582586E+01  0.21237241E+01  0.24776781E+01
  0.29732137E+01
  0.43750000E+00 -0.50000000E+00 -0.68750000E+00  0.19121323E+01  0.21852941E+01  0.25495098E+01
  0.30594117E+01
  0.50000000E+00 -0.50000000E+00 -0.68750000E+00  0.19724667E+01  0.22542477E+01  0.26299556E+01
  0.31559468E+01
  0.56250000E+00 -0.50000000E+00 -0.68750000E+00  0.20386883E+01  0.23299295E+01  0.27182511E+01
  0.32619013E+01
  0.62500000E+00 -0.50000000E+00 -0.68750000E+00  0.21102429E+01  0.24117061E+01  0.28136572E+01
  0.33763886E+01
  0.68750000E+00 -0.50000000E+00 -0.68750000E+00  0.21866070E+01  0.24989794E+01  0.29154759E+01
  0.34985711E+01
  0.75000000E+00 -0.50000000E+00 -0.68750000E+00  0.22672946E+01  0.25911939E+01  0.30230595E+01
  0.36276714E+01
 -0.68750000E+00 -0.43750000E+00 -0.68750000E+00  0.21323403E+01  0.24369603E+01  0.28431204E+01
  0.34117444E+01
 -0.62500000E+00 -0.43750000E+00 -0.68750000E+00  0.20539596E+01  0.23473824E+01  0.27386128E+01
  0.32863353E+01
 -0.56250000E+00 -0.43750000E+00 -0.68750000E+00  0.19803724E+01  0.22632828E+01  0.26404966E+01
  0.31685959E+01
 -0.50000000E+00 -0.43750000E+00 -0.68750000E+00  0.19121323E+01  0.21852941E+01  0.25495098E+01
  0.30594117E+01
 -0.43750000E+00 -0.43750000E+00 -0.68750000E+00  0.18498311E+01  0.21140927E+01  0.24664414E+01
  0.29597297E+01
 -0.37500000E+00 -0.43750000E+00 -0.68750000E+00  0.17940875E+01  0.20503857E+01  0.23921167E+01
  0.28705400E+01
 -0.31250000E+00 -0.43750000E+00 -0.68750000E+00  0.17455300E+01  0.19948914E+01  0.23273733E+01
  0.27928480E+01
 -0.25000000E+00 -0.43750000E+00 -0.68750000E+00  0.17047727E+01  0.19483117E+01  0.22730303E+01
  0.27276363E+01
 -0.18750000E+00 -0.43750000E+00 -0.68750000E+00  0.16723860E+01  0.19112983E+01  0.22298480E+01
  0.26758176E+01
 -0.12500000E+00 -0.43750000E+00 -0.68750000E+00  0.16488632E+01  0.18844151E+01  0.21984843E+01
  0.26381812E+01
 -0.62500000E-01 -0.43750000E+00 -0.68750000E+00  0.16345871E+01  0.18680995E+01  0.21794495E+01
  0.26153394E+01
  0.00000000E+00 -0.43750000E+00 -0.68750000E+00  0.16298006E+01  0.18626293E+01  0.21730675E+01
  0.26076810E+01
  0.62500000E-01 -0.43750000E+00 -0.68750000E+00  0.16345871E+01  0.18680995E+01  0.21794495E+01
  0.26153394E+01
  0.12500000E+00 -0.43750000E+00 -0.68750000E+00  0.16488632E+01  0.18844151E+01  0.21984843E+01
  0.26381812E+01
  0.18750000E+00 -0.43750000E+00 -0.68750000E+00  0.16723860E+01  0.19112983E+01  0.22298480E+01
  0.26758176E+01
  0.25000000E+00 -0.43750000E+00 -0.68750000E+00  0.17047727E+01  0.19483117E+01  0.22730303E+01
  0.27276363E+01
  0.31250000E+00 -0.43750000E+00 -0.68750000E+00  0.17455300E+01  0.19948914E+01  0.23273733E+01
  0.27928480E+01
  0.37500000E+00 -0.43750000E+00 -0.68750000E+00  0.17940875E+01  0.20503857E+01  0.23921167E+01
  0.28705400E+01
  0.43750000E+00 -0.43750000E+00 -0.68750000E+00  0.18498311E+01  0.21140927E+01  0.24664414E+01
  0.29597297E+01
  0.50000000E+00 -0.43750000E+00 -0.68750000E+00  0.19121323E+01  0.21852941E+01  0.25495098E+01
  0.30594117E+01
  0.56250000E+00 -0.43750000E+00 -0.68750000E+00  0.19803724E+01  0.22632828E+01  0.26404966E+01
  0.31685959E+01
  0.62500000E+00 -0.43750000E+00 -0.68750000E+00  0.20539596E+01  0.23473824E+01  0.27386128E+01
  0.32863353E+01
  0.68750000E+00 -0.43750000E+00 -0.68750000E+00  0.21323403E+01  0.24369603E+01  0.28431204E+01
  0.34117444E+01
  0.75000000E+00 -0.43750000E+00 -0.68750000E+00  0.22150056E+01  0.25314350E+01  0.29533409E+01
  0.35440090E+01
 -0.68750000E+00 -0.37500000E+00 -0.68750000E+00  0.20841665E+01  0.23819046E+01  0.27788887E+01
  0.33346664E+01
 -0.62500000E+00 -0.37500000E+00 -0.68750000E+00  0.20039024E+01  0.22901742E+01  0.26718699E+01
  0.32062439E+01
 -0.56250000E+00 -0.37500000E+00 -0.68750000E+00  0.19284061E+01  0.22038927E+01  0.25712081E+01
  0.30854497E+01
 -0.50000000E+00 -0.37500000E+00 -0.68750000E+00  0.18582586E+01  0.21237241E+01  0.24776781E+01
  0.29732137E+01
 -0.43750000E+00 -0.37500000E+00 -0.68750000E+00  0.17940875E+01  0.20503857E+01  0.23921167E+01
  0.28705400E+01
 -0.37500000E+00 -0.37500000E+00 -0.68750000E+00  0.17365555E+01  0.19846349E+01  0.23154073E+01
  0.27784888E+01
 -0.31250000E+00 -0.37500000E+00 -0.68750000E+00  0.16863422E+01  0.19272482E+01  0.22484563E+01
  0.26981475E+01
 -0.25000000E+00 -0.37500000E+00 -0.68750000E+00  0.16441183E+01  0.18789923E+01  0.21921577E+01
  0.26305893E+01
 -0.18750000E+00 -0.37500000E+00 -0.68750000E+00  0.16105123E+01  0.18405855E+01  0.21473498E+01
  0.25768197E+01
 -0.12500000E+00 -0.37500000E+00 -0.68750000E+00  0.15860722E+01  0.18126539E+01  0.21147629E+01
  0.25377155E+01
 -0.62500000E-01 -0.37500000E+00 -0.68750000E+00  0.15712256E+01  0.17956864E+01  0.20949675E+01
  0.25139610E+01
  0.00000000E+00 -0.37500000E+00 -0.68750000E+00  0.15662455E+01  0.17899949E+01  0.20883273E+01
  0.25059928E+01
  0.62500000E-01 -0.37500000E+00 -0.68750000E+00  0.15712256E+01  0.17956864E+01  0.20949675E+01
  0.25139610E+01
  0.12500000E+00 -0.37500000E+00 -0.68750000E+00  0.15860722E+01  0.18126539E+01  0.21147629E+01
  0.25377155E+01
  0.18750000E+00 -0.37500000E+00 -0.68750000E+00  0.16105123E+01  0.18405855E+01  0.21473498E+01
  0.25768197E+01
  0.25000000E+00 -0.37500000E+00 -0.68750000E+00  0.16441183E+01  0.18789923E+01  0.21921577E+01
  0.26305893E+01
  0.31250000E+00 -0.37500000E+00 -0.68750000E+00  0.16863422E+01  0.19272482E+01  0.22484563E+01
  0.26981475E+01
  0.37500000E+00 -0.37500000E+00 -0.68750000E+00  0.17365555E+01  0.19846349E+01  0.23154073E+01
  0.27784888E+01
  0.43750000E+00 -0.37500000E+00 -0.68750000E+00  0.17940875E+01  0.20503857E+01  0.23921167E+01
  0.28705400E+01
  0.50000000E+00 -0.37500000E+00 -0.68750000E+00  0.18582586E+01  0.21237241E+01  0.24776781E+01
  0.29732137E+01
  0.56250000E+00 -0.37500000E+00 -0.68750000E+00  0.19284061E+01  0.22038927E+01  0.25712081E+01
  0.30854497E+01
  0.62500000E+00 -0.37500000E+00 -0.68750000E+00  0.20039024E+01  0.22901742E+01  0.26718699E+01
  0.32062439E+01
  0.68750000E+00 -0.37500000E+00 -0.68750000E+00  0.20841665E+01  0.23819046E+01  0.27788887E+01
  0.33346664E+01
  0.75000000E+00 -0.37500000E+00 -0.68750000E+00  0.21686689E+01  0.24784788E+01  0.28915586E+01
  0.34698703E+01
 -0.68750000E+00 -0.31250000E+00 -0.68750000E+00  0.20425168E+01  0.23343049E+01  0.27233558E+01
  0.32680269E+01
 -0.62500000E+00 -0.31250000E+00 -0.68750000E+00  0.19605484E+01  0.22406267E+01  0.26140645E+01
  0.31368774E+01
 -0.56250000E+00 -0.31250000E+00 -0.68750000E+00  0.18833149E+01  0.21523599E+01  0.25110865E+01
  0.30133038E+01
 -0.50000000E+00 -0.31250000E+00 -0.68750000E+00  0.18114221E+01  0.20701967E+01  0.24152295E+01
  0.28982753E+01
 -0.43750000E+00 -0.31250000E+00 -0.68750000E+00  0.17455300E+01  0.19948914E+01  0.23273733E+01
  0.27928480E+01
 -0.37500000E+00 -0.31250000E+00 -0.68750000E+00  0.16863422E+01  0.19272482E+01  0.22484563E+01
  0.26981475E+01
 -0.31250000E+00 -0.31250000E+00 -0.68750000E+00  0.16345871E+01  0.18680995E+01  0.21794495E+01
  0.26153394E+01
 -0.25000000E+00 -0.31250000E+00 -0.68750000E+00  0.15909903E+01  0.18182746E+01  0.21213203E+01
  0.25455844E+01
 -0.18750000E+00 -0.31250000E+00 -0.68750000E+00  0.15562374E+01  0.17785571E+01  0.20749833E+01
  0.24899799E+01
 -0.12500000E+00 -0.31250000E+00 -0.68750000E+00  0.15309311E+01  0.17496355E+01  0.20412415E+01
  0.24494897E+01
 -0.62500000E-01 -0.31250000E+00 -0.68750000E+00  0.15155445E+01  0.17320508E+01  0.20207259E+01
  0.24248711E+01
  0.00000000E+00 -0.31250000E+00 -0.68750000E+00  0.15103807E+01  0.17261494E+01  0.20138410E+01
  0.24166092E+01
  0.62500000E-01 -0.31250000E+00 -0.68750000E+00  0.15155445E+01  0.17320508E+01  0.20207259E+01
  0.24248711E+01
  0.12500000E+00 -0.31250000E+00 -0.68750000E+00  0.15309311E+01  0.17496355E+01  0.20412415E+01
  0.24494897E+01
  0.18750000E+00 -0.31250000E+00 -0.68750000E+00  0.15562374E+01  0.17785571E+01  0.20749833E+01
  0.24899799E+01
  0.25000000E+00 -0.31250000E+00 -0.68750000E+00  0.15909903E+01  0.18182746E+01  0.21213203E+01
  0.25455844E+01
  0.31250000E+00 -0.31250000E+00 -0.68750000E+00  0.16345871E+01  0.18680995E+01  0.21794495E+01
  0.26153394E+01
  0.37500000E+00 -0.31250000E+00 -0.68750000E+00  0.16863422E+01  0.19272482E+01  0.22484563E+01
  0.26981475E+01
  0.43750000E+00 -0.31250000E+00 -0.68750000E+00  0.17455300E+01  0.19948914E+01  0.23273733E+01
  0.27928480E+01
  0.50000000E+00 -0.31250000E+00 -0.68750000E+00  0.18114221E+01  0.20701967E+01  0.24152295E+01
  0.28982753E+01
  0.56250000E+00 -0.31250000E+00 -0.68750000E+00  0.18833149E+01  0.21523599E+01  0.25110865E+01
  0.30133038E+01
  0.62500000E+00 -0.31250000E+00 -0.68750000E+00  0.19605484E+01  0.22406267E+01  0.26140645E+01
  0.31368774E+01
  0.68750000E+00 -0.31250000E+00 -0.68750000E+00  0.20425168E+01  0.23343049E+01  0.27233558E+01
  0.32680269E+01
  0.75000000E+00 -0.31250000E+00 -0.68750000E+00  0.21286733E+01  0.24327695E+01  0.28382311E+01
  0.34058773E+01
 -0.68750000E+00 -0.25000000E+00 -0.68750000E+00  0.20077973E+01  0.22946255E+01  0.26770631E+01
  0.32124757E+01
 -0.62500000E+00 -0.25000000E+00 -0.68750000E+00  0.19243505E+01  0.21992578E+01  0.25658007E+01
  0.30789609E+01
 -0.56250000E+00 -0.25000000E+00 -0.68750000E+00  0.18456029E+01  0.21092604E+01  0.24608038E+01
  0.29529646E+01
 -0.50000000E+00 -0.25000000E+00 -0.68750000E+00  0.17721809E+01  0.20253496E+01  0.23629078E+01
  0.28354894E+01
 -0.43750000E+00 -0.25000000E+00 -0.68750000E+00  0.17047727E+01  0.19483117E+01  0.22730303E+01
  0.27276363E+01
 -0.37500000E+00 -0.25000000E+00 -0.68750000E+00  0.16441183E+01  0.18789923E+01  0.21921577E+01
  0.26305893E+01
 -0.31250000E+00 -0.25000000E+00 -0.68750000E+00  0.15909903E+01  0.18182746E+01  0.21213203E+01
  0.25455844E+01
 -0.25000000E+00 -0.25000000E+00 -0.68750000E+00  0.15461646E+01  0.17670453E+01  0.20615528E+01
  0.24738634E+01
 -0.18750000E+00 -0.25000000E+00 -0.68750000E+00  0.15103807E+01  0.17261494E+01  0.20138410E+01
  0.24166092E+01
 -0.12500000E+00 -0.25000000E+00 -0.68750000E+00  0.14842928E+01  0.16963346E+01  0.19790570E+01
  0.23748684E+01
 -0.62500000E-01 -0.25000000E+00 -0.68750000E+00  0.14684175E+01  0.16781914E+01  0.19578900E+01
  0.23494680E+01
  0.00000000E+00 -0.25000000E+00 -0.68750000E+00  0.14630875E+01  0.16721000E+01  0.19507833E+01
  0.23409400E+01
  0.62500000E-01 -0.25000000E+00 -0.68750000E+00  0.14684175E+01  0.16781914E+01  0.19578900E+01
  0.23494680E+01
  0.12500000E+00 -0.25000000E+00 -0.68750000E+00  0.14842928E+01  0.16963346E+01  0.19790570E+01
  0.23748684E+01
  0.18750000E+00 -0.25000000E+00 -0.68750000E+00  0.15103807E+01  0.17261494E+01  0.20138410E+01
  0.24166092E+01
  0.25000000E+00 -0.25000000E+00 -0.68750000E+00  0.15461646E+01  0.17670453E+01  0.20615528E+01
  0.24738634E+01
  0.31250000E+00 -0.25000000E+00 -0.68750000E+00  0.15909903E+01  0.18182746E+01  0.21213203E+01
  0.25455844E+01
  0.37500000E+00 -0.25000000E+00 -0.68750000E+00  0.16441183E+01  0.18789923E+01  0.21921577E+01
  0.26305893E+01
  0.43750000E+00 -0.25000000E+00 -0.68750000E+00  0.17047727E+01  0.19483117E+01  0.22730303E+01
  0.27276363E+01
  0.50000000E+00 -0.25000000E+00 -0.68750000E+00  0.17721809E+01  0.20253496E+01  0.23629078E+01
  0.28354894E+01
  0.56250000E+00 -0.25000000E+00 -0.68750000E+00  0.18456029E+01  0.21092604E+01  0.24608038E+01
  0.29529646E+01
  0.62500000E+00 -0.25000000E+00 -0.68750000E+00  0.19243505E+01  0.21992578E+01  0.25658007E+01
  0.30789609E+01
  0.68750000E+00 -0.25000000E+00 -0.68750000E+00  0.20077973E+01  0.22946255E+01  0.26770631E+01
  0.32124757E+01
  0.75000000E+00 -0.25000000E+00 -0.68750000E+00  0.20953818E+01  0.23947221E+01  0.27938424E+01
  0.33526109E+01
 -0.68750000E+00 -0.18750000E+00 -0.68750000E+00  0.19803724E+01  0.22632828E+01  0.26404966E+01
  0.31685959E+01
 -0.62500000E+00 -0.18750000E+00 -0.68750000E+00  0.18957189E+01  0.21665358E+01  0.25276251E+01
  0.30331502E+01
 -0.56250000E+00 -0.18750000E+00 -0.68750000E+00  0.18157299E+01  0.20751199E+01  0.24209732E+01
  0.29051678E+01
 -0.50000000E+00 -0.18750000E+00 -0.68750000E+00  0.17410485E+01  0.19897698E+01  0.23213980E+01
  0.27856777E+01
 -0.43750000E+00 -0.18750000E+00 -0.68750000E+00  0.16723860E+01  0.19112983E+01  0.22298480E+01
  0.26758176E+01
 -0.37500000E+00 -0.18750000E+00 -0.68750000E+00  0.16105123E+01  0.18405855E+01  0.21473498E+01
  0.25768197E+01
 -0.31250000E+00 -0.18750000E+00 -0.68750000E+00  0.15562374E+01  0.17785571E+01  0.20749833E+01
  0.24899799E+01
 -0.25000000E+00 -0.18750000E+00 -0.68750000E+00  0.15103807E+01  0.17261494E+01  0.20138410E+01
  0.24166092E+01
 -0.18750000E+00 -0.18750000E+00 -0.68750000E+00  0.14737283E+01  0.16842609E+01  0.19649710E+01
  0.23579652E+01
 -0.12500000E+00 -0.18750000E+00 -0.68750000E+00  0.14469796E+01  0.16536910E+01  0.19293062E+01
  0.23151674E+01
 -0.62500000E-01 -0.18750000E+00 -0.68750000E+00  0.14306904E+01  0.16350747E+01  0.19075872E+01
  0.22891046E+01
  0.00000000E+00 -0.18750000E+00 -0.68750000E+00  0.14252193E+01  0.16288220E+01  0.19002924E+01
  0.22803509E+01
  0.62500000E-01 -0.18750000E+00 -0.68750000E+00  0.14306904E+01  0.16350747E+01  0.19075872E+01
  0.22891046E+01
  0.12500000E+00 -0.18750000E+00 -0.68750000E+00  0.14469796E+01  0.16536910E+01  0.19293062E+01
  0.23151674E+01
  0.18750000E+00 -0.18750000E+00 -0.68750000E+00  0.14737283E+01  0.16842609E+01  0.19649710E+01
  0.23579652E+01
  0.25000000E+00 -0.18750000E+00 -0.68750000E+00  0.15103807E+01  0.17261494E+01  0.20138410E+01
  0.24166092E+01
  0.31250000E+00 -0.18750000E+00 -0.68750000E+00  0.15562374E+01  0.17785571E+01  0.20749833E+01
  0.24899799E+01
  0.37500000E+00 -0.18750000E+00 -0.68750000E+00  0.16105123E+01  0.18405855E+01  0.21473498E+01
  0.25768197E+01
  0.43750000E+00 -0.18750000E+00 -0.68750000E+00  0.16723860E+01  0.19112983E+01  0.22298480E+01
  0.26758176E+01
  0.50000000E+00 -0.18750000E+00 -0.68750000E+00  0.17410485E+01  0.19897698E+01  0.23213980E+01
  0.27856777E+01
  0.56250000E+00 -0.18750000E+00 -0.68750000E+00  0.18157299E+01  0.20751199E+01  0.24209732E+01
  0.29051678E+01
  0.62500000E+00 -0.18750000E+00 -0.68750000E+00  0.18957189E+01  0.21665358E+01  0.25276251E+01
  0.30331502E+01
  0.68750000E+00 -0.18750000E+00 -0.68750000E+00  0.19803724E+01  0.22632828E+01  0.26404966E+01
  0.31685959E+01
  0.75000000E+00 -0.18750000E+00 -0.68750000E+00  0.20691182E+01  0.23647065E+01  0.27588242E+01
  0.33105891E+01
 -0.68750000E+00 -0.12500000E+00 -0.68750000E+00  0.19605484E+01  0.22406267E+01  0.26140645E+01
  0.31368774E+01
 -0.62500000E+00 -0.12500000E+00 -0.68750000E+00  0.18750000E+01  0.21428571E+01  0.25000000E+01
  0.30000000E+01
 -0.56250000E+00 -0.12500000E+00 -0.68750000E+00  0.17940875E+01  0.20503857E+01  0.23921167E+01
  0.28705400E+01
 -0.50000000E+00 -0.12500000E+00 -0.68750000E+00  0.17184659E+01  0.19639610E+01  0.22912878E+01
  0.27495454E+01
 -0.43750000E+00 -0.12500000E+00 -0.68750000E+00  0.16488632E+01  0.18844151E+01  0.21984843E+01
  0.26381812E+01
 -0.37500000E+00 -0.12500000E+00 -0.68750000E+00  0.15860722E+01  0.18126539E+01  0.21147629E+01
  0.25377155E+01
 -0.31250000E+00 -0.12500000E+00 -0.68750000E+00  0.15309311E+01  0.17496355E+01  0.20412415E+01
  0.24494897E+01
 -0.25000000E+00 -0.12500000E+00 -0.68750000E+00  0.14842928E+01  0.16963346E+01  0.19790570E+01
  0.23748684E+01
 -0.18750000E+00 -0.12500000E+00 -0.68750000E+00  0.14469796E+01  0.16536910E+01  0.19293062E+01
  0.23151674E+01
 -0.12500000E+00 -0.12500000E+00 -0.68750000E+00  0.14197271E+01  0.16225452E+01  0.18929694E+01
  0.22715633E+01
 -0.62500000E-01 -0.12500000E+00 -0.68750000E+00  0.14031215E+01  0.16035675E+01  0.18708287E+01
  0.22449944E+01
  0.00000000E+00 -0.12500000E+00 -0.68750000E+00  0.13975425E+01  0.15971914E+01  0.18633900E+01
  0.22360680E+01
  0.62500000E-01 -0.12500000E+00 -0.68750000E+00  0.14031215E+01  0.16035675E+01  0.18708287E+01
  0.22449944E+01
  0.12500000E+00 -0.12500000E+00 -0.68750000E+00  0.14197271E+01  0.16225452E+01  0.18929694E+01
  0.22715633E+01
  0.18750000E+00 -0.12500000E+00 -0.68750000E+00  0.14469796E+01  0.16536910E+01  0.19293062E+01
  0.23151674E+01
  0.25000000E+00 -0.12500000E+00 -0.68750000E+00  0.14842928E+01  0.16963346E+01  0.19790570E+01
  0.23748684E+01
  0.31250000E+00 -0.12500000E+00 -0.68750000E+00  0.15309311E+01  0.17496355E+01  0.20412415E+01
  0.24494897E+01
  0.37500000E+00 -0.12500000E+00 -0.68750000E+00  0.15860722E+01  0.18126539E+01  0.21147629E+01
  0.25377155E+01
  0.43750000E+00 -0.12500000E+00 -0.68750000E+00  0.16488632E+01  0.18844151E+01  0.21984843E+01
  0.26381812E+01
  0.50000000E+00 -0.12500000E+00 -0.68750000E+00  0.17184659E+01  0.19639610E+01  0.22912878E+01
  0.27495454E+01
  0.56250000E+00 -0.12500000E+00 -0.68750000E+00  0.17940875E+01  0.20503857E+01  0.23921167E+01
  0.28705400E+01
  0.62500000E+00 -0.12500000E+00 -0.68750000E+00  0.18750000E+01  0.21428571E+01  0.25000000E+01
  0.30000000E+01
  0.68750000E+00 -0.12500000E+00 -0.68750000E+00  0.19605484E+01  0.22406267E+01  0.26140645E+01
  0.31368774E+01
  0.75000000E+00 -0.12500000E+00 -0.68750000E+00  0.20501524E+01  0.23430314E+01  0.27335366E+01
  0.32802439E+01
 -0.68750000E+00 -0.62500000E-01 -0.68750000E+00  0.19485572E+01  0.22269225E+01  0.25980762E+01
  0.31176915E+01
 -0.62500000E+00 -0.62500000E-01 -0.68750000E+00  0.18624581E+01  0.21285235E+01  0.24832774E+01
  0.29799329E+01
 -0.56250000E+00 -0.62500000E-01 -0.68750000E+00  0.17809759E+01  0.20354010E+01  0.23746345E+01
  0.28495614E+01
 -0.50000000E+00 -0.62500000E-01 -0.68750000E+00  0.17047727E+01  0.19483117E+01  0.22730303E+01
  0.27276363E+01
 -0.43750000E+00 -0.62500000E-01 -0.68750000E+00  0.16345871E+01  0.18680995E+01  0.21794495E+01
  0.26153394E+01
 -0.37500000E+00 -0.62500000E-01 -0.68750000E+00  0.15712256E+01  0.17956864E+01  0.20949675E+01
  0.25139610E+01
 -0.31250000E+00 -0.62500000E-01 -0.68750000E+00  0.15155445E+01  0.17320508E+01  0.20207259E+01
  0.24248711E+01
 -0.25000000E+00 -0.62500000E-01 -0.68750000E+00  0.14684175E+01  0.16781914E+01  0.19578900E+01
  0.23494680E+01
 -0.18750000E+00 -0.62500000E-01 -0.68750000E+00  0.14306904E+01  0.16350747E+01  0.19075872E+01
  0.22891046E+01
 -0.12500000E+00 -0.62500000E-01 -0.68750000E+00  0.14031215E+01  0.16035675E+01  0.18708287E+01
  0.22449944E+01
 -0.62500000E-01 -0.62500000E-01 -0.68750000E+00  0.13863171E+01  0.15843624E+01  0.18484228E+01
  0.22181073E+01
  0.00000000E+00 -0.62500000E-01 -0.68750000E+00  0.13806701E+01  0.15779087E+01  0.18408935E+01
  0.22090722E+01
  0.62500000E-01 -0.62500000E-01 -0.68750000E+00  0.13863171E+01  0.15843624E+01  0.18484228E+01
  0.22181073E+01
  0.12500000E+00 -0.62500000E-01 -0.68750000E+00  0.14031215E+01  0.16035675E+01  0.18708287E+01
  0.22449944E+01
  0.18750000E+00 -0.62500000E-01 -0.68750000E+00  0.14306904E+01  0.16350747E+01  0.19075872E+01
  0.22891046E+01
  0.25000000E+00 -0.62500000E-01 -0.68750000E+00  0.14684175E+01  0.16781914E+01  0.19578900E+01
  0.23494680E+01
  0.31250000E+00 -0.62500000E-01 -0.68750000E+00  0.15155445E+01  0.17320508E+01  0.20207259E+01
  0.24248711E+01
  0.37500000E+00 -0.62500000E-01 -0.68750000E+00  0.15712256E+01  0.17956864E+01  0.20949675E+01
  0.25139610E+01
  0.43750000E+00 -0.62500000E-01 -0.68750000E+00  0.16345871E+01  0.18680995E+01  0.21794495E+01
  0.26153394E+01
  0.50000000E+00 -0.62500000E-01 -0.68750000E+00  0.17047727E+01  0.19483117E+01  0.22730303E+01
  0.27276363E+01
  0.56250000E+00 -0.62500000E-01 -0.68750000E+00  0.17809759E+01  0.20354010E+01  0.23746345E+01
  0.28495614E+01
  0.62500000E+00 -0.62500000E-01 -0.68750000E+00  0.18624581E+01  0.21285235E+01  0.24832774E+01
  0.29799329E+01